
     Program PWSCF v.7.1 starts on 30Jan2023 at 16:10:36 

     This program is part of the open-source Quantum ESPRESSO suite
     for quantum simulation of materials; please cite
         "P. Giannozzi et al., J. Phys.:Condens. Matter 21 395502 (2009);
         "P. Giannozzi et al., J. Phys.:Condens. Matter 29 465901 (2017);
         "P. Giannozzi et al., J. Chem. Phys. 152 154105 (2020);
          URL http://www.quantum-espresso.org", 
     in publications or presentations arising from this work. More details at
     http://www.quantum-espresso.org/quote

     Parallel version (MPI), running on     1 processors

     MPI processes distributed on     1 nodes
     106142 MiB available memory on the printing compute node when the environment starts

     Reading input from alpha.scf.in

     Current dimensions of program PWSCF are:
     Max number of different atomic species (ntypx) = 10
     Max number of k-points (npk) =  40000
     Max angular momentum in pseudopotentials (lmaxx) =  4

     Subspace diagonalization in iterative solution of the eigenvalue problem:
     a serial algorithm will be used


     G-vector sticks info
     --------------------
     sticks:   dense  smooth     PW     G-vecs:    dense   smooth      PW
     Sum        2527    1507    421               509349   236737   35333

     Using Slab Decomposition



     bravais-lattice index     =           12
     lattice parameter (alat)  =       9.5463  a.u.
     unit-cell volume          =    3767.0889 (a.u.)^3
     number of atoms/cell      =            8
     number of atomic types    =            1
     number of electrons       =        24.00
     number of Kohn-Sham states=           16
     kinetic-energy cutoff     =      60.0000  Ry
     charge density cutoff     =     400.0000  Ry
     scf convergence threshold =      1.0E-08
     mixing beta               =       0.7000
     number of iterations used =            8  plain     mixing
     energy convergence thresh.=      1.0E-04
     force convergence thresh. =      1.0E-03
     press convergence thresh. =      5.0E-01
     Exchange-correlation=  SLA  PW   PBX  PBC
                           (   1   4   3   4   0   0   0)
     nstep                     =           50


     celldm(1)=   9.546300  celldm(2)=   1.000000  celldm(3)=   5.000000
     celldm(4)=   0.500000  celldm(5)=   0.000000  celldm(6)=   0.000000

     crystal axes: (cart. coord. in units of alat)
               a(1) = (   1.000000   0.000000   0.000000 )  
               a(2) = (   0.500000   0.866025   0.000000 )  
               a(3) = (   0.000000   0.000000   5.000000 )  

     reciprocal axes: (cart. coord. in units 2 pi/alat)
               b(1) = (  1.000000 -0.577350  0.000000 )  
               b(2) = (  0.000000  1.154701  0.000000 )  
               b(3) = (  0.000000  0.000000  0.200000 )  


     PseudoPot. # 1 for B  read from file:
     /home/ngys/Desktop/pseudo/b_pbe_v1.4.uspp.F.UPF
     MD5 check sum: cc6de2960df11db49a60e589f9ebb39b
     Pseudo is Ultrasoft + core correction, Zval =  3.0
     Generated by new atomic code, or converted to UPF format
     Using radial grid of  781 points,  4 beta functions with: 
                l(1) =   0
                l(2) =   0
                l(3) =   1
                l(4) =   1
     Q(r) pseudized with  8 coefficients,  rinner =    1.100   1.100   1.100


     atomic species   valence    mass     pseudopotential
        B              3.00    10.81100     B ( 1.00)

      2 Sym. Ops. (no inversion) found



   Cartesian axes

     site n.     atom                  positions (alat units)
         1           B   tau(   1) = (   0.3331562   0.0000000   0.0000000  )
         2           B   tau(   2) = (   0.6665104   0.0000000   0.0000000  )
         3           B   tau(   3) = (   0.1665781   0.2885176   0.0000000  )
         4           B   tau(   4) = (   0.3331562   0.5770353   0.0000000  )
         5           B   tau(   5) = (   0.4997343   0.2885176   0.0000000  )
         6           B   tau(   6) = (   0.6663124   0.5770353   0.0000000  )
         7           B   tau(   7) = (   0.8330885   0.2885176   0.0000000  )
         8           B   tau(   8) = (   0.9996666   0.5770353   0.0000000  )

     number of k points=    52  Marzari-Vanderbilt smearing, width (Ry)=  0.0100
                       cart. coord. in units 2pi/alat
        k(    1) = (   0.0000000   0.0000000   0.0000000), wk =   0.0200000
        k(    2) = (   0.0000000   0.1154701   0.0000000), wk =   0.0400000
        k(    3) = (   0.0000000   0.2309401   0.0000000), wk =   0.0400000
        k(    4) = (   0.0000000   0.3464102   0.0000000), wk =   0.0400000
        k(    5) = (   0.0000000   0.4618802   0.0000000), wk =   0.0400000
        k(    6) = (   0.0000000  -0.5773503   0.0000000), wk =   0.0200000
        k(    7) = (   0.1000000   0.1732051   0.0000000), wk =   0.0400000
        k(    8) = (   0.1000000   0.2886751   0.0000000), wk =   0.0400000
        k(    9) = (   0.1000000   0.4041452   0.0000000), wk =   0.0400000
        k(   10) = (   0.1000000  -0.6350853   0.0000000), wk =   0.0400000
        k(   11) = (   0.2000000   0.3464102   0.0000000), wk =   0.0400000
        k(   12) = (   0.2000000  -0.6928203   0.0000000), wk =   0.0400000
        k(   13) = (   0.2000000  -0.5773503   0.0000000), wk =   0.0400000
        k(   14) = (   0.3000000  -0.6350853   0.0000000), wk =   0.0400000
        k(   15) = (  -0.1000000   0.0577350   0.0000000), wk =   0.0400000
        k(   16) = (   0.1000000   0.0577350   0.0000000), wk =   0.0400000
        k(   17) = (  -0.2000000   0.1154701   0.0000000), wk =   0.0400000
        k(   18) = (   0.2000000   0.1154701   0.0000000), wk =   0.0400000
        k(   19) = (  -0.3000000   0.1732051   0.0000000), wk =   0.0400000
        k(   20) = (   0.3000000   0.1732051   0.0000000), wk =   0.0400000
        k(   21) = (  -0.4000000   0.2309401   0.0000000), wk =   0.0400000
        k(   22) = (   0.4000000   0.2309401   0.0000000), wk =   0.0400000
        k(   23) = (   0.5000000  -0.2886751   0.0000000), wk =   0.0200000
        k(   24) = (  -0.5000000  -0.2886751   0.0000000), wk =   0.0200000
        k(   25) = (  -0.1000000   0.1732051   0.0000000), wk =   0.0400000
        k(   26) = (   0.2000000   0.0000000   0.0000000), wk =   0.0400000
        k(   27) = (  -0.1000000   0.2886751   0.0000000), wk =   0.0400000
        k(   28) = (  -0.2000000   0.2309401   0.0000000), wk =   0.0400000
        k(   29) = (   0.3000000   0.0577350   0.0000000), wk =   0.0400000
        k(   30) = (  -0.2000000  -0.2309401   0.0000000), wk =   0.0400000
        k(   31) = (   0.3000000  -0.0577350   0.0000000), wk =   0.0400000
        k(   32) = (  -0.1000000   0.4041452   0.0000000), wk =   0.0400000
        k(   33) = (  -0.3000000   0.2886751   0.0000000), wk =   0.0400000
        k(   34) = (   0.4000000   0.1154701   0.0000000), wk =   0.0400000
        k(   35) = (  -0.3000000  -0.2886751   0.0000000), wk =   0.0400000
        k(   36) = (   0.4000000  -0.1154701   0.0000000), wk =   0.0400000
        k(   37) = (  -0.1000000  -0.6350853   0.0000000), wk =   0.0400000
        k(   38) = (   0.6000000  -0.2309401   0.0000000), wk =   0.0400000
        k(   39) = (  -0.5000000  -0.4041452   0.0000000), wk =   0.0400000
        k(   40) = (   0.6000000   0.2309401   0.0000000), wk =   0.0400000
        k(   41) = (  -0.5000000   0.4041452   0.0000000), wk =   0.0400000
        k(   42) = (  -0.2000000   0.3464102   0.0000000), wk =   0.0400000
        k(   43) = (   0.4000000   0.0000000   0.0000000), wk =   0.0400000
        k(   44) = (  -0.2000000  -0.6928203   0.0000000), wk =   0.0400000
        k(   45) = (   0.7000000  -0.1732051   0.0000000), wk =   0.0400000
        k(   46) = (  -0.5000000  -0.5196152   0.0000000), wk =   0.0400000
        k(   47) = (   0.7000000   0.1732051   0.0000000), wk =   0.0400000
        k(   48) = (  -0.5000000   0.5196152   0.0000000), wk =   0.0400000
        k(   49) = (   0.6000000  -0.1154701   0.0000000), wk =   0.0400000
        k(   50) = (  -0.4000000  -0.4618802   0.0000000), wk =   0.0400000
        k(   51) = (  -0.3000000  -0.6350853   0.0000000), wk =   0.0400000
        k(   52) = (  -0.4000000  -0.5773503   0.0000000), wk =   0.0400000

     Dense  grid:   509349 G-vectors     FFT dimensions: (  64,  64, 320)

     Smooth grid:   236737 G-vectors     FFT dimensions: (  48,  48, 240)

     Estimated max dynamical RAM per process >       1.19 GB

     Initial potential from superposition of free atoms

     starting charge      23.9977, renormalised to      24.0000

     negative rho (up, down):  8.115E-05 0.000E+00
     Starting wfcs are   32 randomized atomic wfcs

     total cpu time spent up to now is       48.1 secs

     Self-consistent Calculation

     iteration #  1     ecut=    60.00 Ry     beta= 0.70
     Davidson diagonalization with overlap
     ethr =  1.00E-02,  avg # of iterations =  2.0

     negative rho (up, down):  8.717E-07 0.000E+00

     total cpu time spent up to now is       98.5 secs

     total energy              =     -50.79992107 Ry
     estimated scf accuracy    <       0.68087092 Ry

     iteration #  2     ecut=    60.00 Ry     beta= 0.70
     Davidson diagonalization with overlap
     ethr =  2.84E-03,  avg # of iterations =  2.0

     negative rho (up, down):  1.855E-06 0.000E+00

     total cpu time spent up to now is      143.6 secs

     total energy              =     -50.91111101 Ry
     estimated scf accuracy    <       0.01487776 Ry

     iteration #  3     ecut=    60.00 Ry     beta= 0.70
     Davidson diagonalization with overlap
     ethr =  6.20E-05,  avg # of iterations =  3.9

     negative rho (up, down):  3.827E-06 0.000E+00

     total cpu time spent up to now is      197.5 secs

     total energy              =     -50.91567846 Ry
     estimated scf accuracy    <       0.00419728 Ry

     iteration #  4     ecut=    60.00 Ry     beta= 0.70
     Davidson diagonalization with overlap
     ethr =  1.75E-05,  avg # of iterations =  4.0

     negative rho (up, down):  1.217E-05 0.000E+00

     total cpu time spent up to now is      243.9 secs

     total energy              =     -50.91650141 Ry
     estimated scf accuracy    <       0.00008534 Ry

     iteration #  5     ecut=    60.00 Ry     beta= 0.70
     Davidson diagonalization with overlap
     ethr =  3.56E-07,  avg # of iterations =  6.2

     negative rho (up, down):  1.269E-05 0.000E+00

     total cpu time spent up to now is      308.7 secs

     total energy              =     -50.91652650 Ry
     estimated scf accuracy    <       0.00002199 Ry

     iteration #  6     ecut=    60.00 Ry     beta= 0.70
     Davidson diagonalization with overlap
     ethr =  9.16E-08,  avg # of iterations =  2.2

     negative rho (up, down):  1.289E-05 0.000E+00

     total cpu time spent up to now is      354.2 secs

     total energy              =     -50.91653360 Ry
     estimated scf accuracy    <       0.00000522 Ry

     iteration #  7     ecut=    60.00 Ry     beta= 0.70
     Davidson diagonalization with overlap
     ethr =  2.17E-08,  avg # of iterations =  1.1

     negative rho (up, down):  1.292E-05 0.000E+00

     total cpu time spent up to now is      389.5 secs

     total energy              =     -50.91653348 Ry
     estimated scf accuracy    <       0.00000101 Ry

     iteration #  8     ecut=    60.00 Ry     beta= 0.70
     Davidson diagonalization with overlap
     ethr =  4.21E-09,  avg # of iterations =  2.5

     negative rho (up, down):  1.290E-05 0.000E+00

     total cpu time spent up to now is      435.9 secs

     total energy              =     -50.91653380 Ry
     estimated scf accuracy    <       0.00000006 Ry

     iteration #  9     ecut=    60.00 Ry     beta= 0.70
     Davidson diagonalization with overlap
     ethr =  2.45E-10,  avg # of iterations =  2.4

     negative rho (up, down):  1.289E-05 0.000E+00

     total cpu time spent up to now is      476.6 secs

     total energy              =     -50.91653380 Ry
     estimated scf accuracy    <       0.00000001 Ry

     iteration # 10     ecut=    60.00 Ry     beta= 0.70
     Davidson diagonalization with overlap
     ethr =  6.23E-11,  avg # of iterations =  2.2

     negative rho (up, down):  1.289E-05 0.000E+00

     total cpu time spent up to now is      520.1 secs

     End of self-consistent calculation

          k = 0.0000 0.0000 0.0000 ( 29643 PWs)   bands (ev):

   -18.3812 -14.2585 -14.1827 -14.1798 -11.9371 -11.9333  -9.7885  -9.2051
    -4.3202  -4.3191  -2.7710  -2.2674  -2.2661  -2.0254  -2.0229  -1.6214

          k = 0.0000 0.1155 0.0000 ( 29573 PWs)   bands (ev):

   -18.3363 -14.8579 -14.2248 -13.6150 -11.9951 -11.8182  -9.5941  -9.1361
    -4.8264  -4.7503  -3.6118  -2.6578  -2.0972  -1.5475  -1.4751  -1.0954

          k = 0.0000 0.2309 0.0000 ( 29528 PWs)   bands (ev):

   -18.2037 -15.4792 -14.3232 -13.1915 -11.9636 -11.5087  -9.1754  -8.9308
    -5.7485  -5.5113  -4.6643  -3.1286  -2.2742  -0.6239  -0.4317  -0.2214

          k = 0.0000 0.3464 0.0000 ( 29576 PWs)   bands (ev):

   -17.9916 -16.0549 -14.4272 -13.1055 -11.5726 -11.0849  -8.8660  -8.5977
    -6.6536  -6.0973  -5.6322  -3.4793  -2.4844   0.3402   0.6591   0.7933

          k = 0.0000 0.4619 0.0000 ( 29570 PWs)   bands (ev):

   -17.7302 -16.5404 -14.5012 -13.1621 -11.0269 -10.6672  -8.9416  -8.1705
    -7.3659  -6.4482  -6.2736  -3.6924  -2.6328   1.1269   1.5292   1.6040

          k = 0.0000-0.5774 0.0000 ( 29612 PWs)   bands (ev):

   -17.5654 -16.7809 -14.5275 -13.1929 -10.7312 -10.4717  -9.1156  -7.8741
    -7.6601  -6.8755  -6.2532  -3.7637  -2.6852   1.2121   1.6515   2.0589

          k = 0.1000 0.1732 0.0000 ( 29551 PWs)   bands (ev):

   -18.2474 -15.3093 -14.3254 -13.2212 -12.0592 -11.5786  -9.2927  -8.9988
    -5.5183  -5.2778  -4.3472  -3.2347  -1.8040  -0.9934  -0.9527  -0.6213

          k = 0.1000 0.2887 0.0000 ( 29557 PWs)   bands (ev):

   -18.0741 -15.8421 -14.4834 -12.9078 -11.9459 -11.1679  -8.9540  -8.7286
    -6.3239  -5.9190  -5.2321  -3.7556  -1.8035  -0.2621  -0.2562   0.5456

          k = 0.1000 0.4041 0.0000 ( 29552 PWs)   bands (ev):

   -17.8308 -16.3484 -14.6174 -12.8731 -11.4812 -10.7180  -8.9523  -8.3408
    -6.9586  -6.2996  -6.0822  -4.0848  -1.9450   0.4561   0.7466   1.2953

          k = 0.1000-0.6351 0.0000 ( 29587 PWs)   bands (ev):

   -17.5801 -16.7363 -14.6910 -12.9083 -10.9906 -10.3907  -9.2779  -7.9154
    -7.3665  -6.7500  -6.3069  -4.2447  -2.0355   1.0041   1.3333   1.8211

          k = 0.2000 0.3464 0.0000 ( 29578 PWs)   bands (ev):

   -17.8657 -16.2588 -14.7261 -12.4898 -11.9066 -10.7114  -8.9932  -8.3996
    -6.6906  -6.3590  -5.8691  -4.3952  -1.1477  -0.1752   0.1197   1.2224

          k = 0.2000-0.6928 0.0000 ( 29585 PWs)   bands (ev):

   -17.6017 -16.6615 -14.9030 -12.3418 -11.5120 -10.3304  -9.4522  -7.9714
    -6.8662  -6.5217  -6.4949  -4.7660  -0.9872   0.5061   0.5811   1.5143

          k = 0.2000-0.5774 0.0000 ( 29626 PWs)   bands (ev):

   -17.4169 -16.8952 -14.9649 -12.3361 -11.1846 -10.1752  -9.8005  -7.6500
    -7.0078  -6.9276  -6.4121  -4.8828  -0.9926   0.7688   1.0959   1.3408

          k = 0.3000-0.6351 0.0000 ( 29572 PWs)   bands (ev):

   -17.3277 -16.9737 -15.0795 -11.8335 -11.5174 -10.1044 -10.0326  -7.5271
    -6.9773  -6.6939  -6.5887  -5.1491  -0.0891   0.5434   0.6461   1.0197

          k =-0.1000 0.0577 0.0000 ( 29573 PWs)   bands (ev):

   -18.3363 -14.8596 -14.2228 -13.6146 -11.9933 -11.8210  -9.5940  -9.1360
    -4.8272  -4.7496  -3.6136  -2.6574  -2.0928  -1.5477  -1.4745  -1.0959

          k = 0.1000 0.0577 0.0000 ( 29573 PWs)   bands (ev):

   -18.3363 -14.8595 -14.2228 -13.6147 -11.9932 -11.8210  -9.5940  -9.1360
    -4.8269  -4.7499  -3.6135  -2.6574  -2.0931  -1.5490  -1.4733  -1.0959

          k =-0.2000 0.1155 0.0000 ( 29528 PWs)   bands (ev):

   -18.2035 -15.4814 -14.3214 -13.1881 -11.9647 -11.5111  -9.1755  -8.9307
    -5.7492  -5.5103  -4.6664  -3.1284  -2.2697  -0.6234  -0.4308  -0.2217

          k = 0.2000 0.1155 0.0000 ( 29528 PWs)   bands (ev):

   -18.2035 -15.4813 -14.3214 -13.1886 -11.9641 -11.5112  -9.1756  -8.9307
    -5.7486  -5.5109  -4.6662  -3.1284  -2.2699  -0.6247  -0.4297  -0.2217

          k =-0.3000 0.1732 0.0000 ( 29576 PWs)   bands (ev):

   -17.9911 -16.0577 -14.4257 -13.1003 -11.5755 -11.0871  -8.8670  -8.5972
    -6.6544  -6.0952  -5.6345  -3.4791  -2.4803   0.3415   0.6606   0.7931

          k = 0.3000 0.1732 0.0000 ( 29576 PWs)   bands (ev):

   -17.9911 -16.0576 -14.4257 -13.1009 -11.5745 -11.0874  -8.8672  -8.5972
    -6.6536  -6.0963  -5.6343  -3.4791  -2.4805   0.3400   0.6617   0.7931

          k =-0.4000 0.2309 0.0000 ( 29570 PWs)   bands (ev):

   -17.7288 -16.5441 -14.4998 -13.1567 -11.0299 -10.6693  -8.9437  -8.1693
    -7.3667  -6.4513  -6.2702  -3.6923  -2.6289   1.1286   1.5291   1.6064

          k = 0.4000 0.2309 0.0000 ( 29570 PWs)   bands (ev):

   -17.7289 -16.5439 -14.4998 -13.1573 -11.0286 -10.6699  -8.9442  -8.1694
    -7.3655  -6.4511  -6.2716  -3.6923  -2.6291   1.1268   1.5291   1.6081

          k = 0.5000-0.2887 0.0000 ( 29612 PWs)   bands (ev):

   -17.5627 -16.7859 -14.5262 -13.1876 -10.7341 -10.4738  -9.1181  -7.8714
    -7.6609  -6.8800  -6.2495  -3.7636  -2.6814   1.2115   1.6564   2.0625

          k =-0.5000-0.2887 0.0000 ( 29612 PWs)   bands (ev):

   -17.5629 -16.7857 -14.5261 -13.1881 -10.7324 -10.4745  -9.1189  -7.8716
    -7.6596  -6.8797  -6.2510  -3.7636  -2.6816   1.2128   1.6541   2.0648

          k =-0.1000 0.1732 0.0000 ( 29551 PWs)   bands (ev):

   -18.2474 -15.3094 -14.3254 -13.2210 -12.0594 -11.5787  -9.2926  -8.9988
    -5.5179  -5.2782  -4.3473  -3.2347  -1.8038  -0.9919  -0.9527  -0.6225

          k = 0.2000 0.0000 0.0000 ( 29551 PWs)   bands (ev):

   -18.2473 -15.3114 -14.3232 -13.2201 -12.0574 -11.5822  -9.2928  -8.9987
    -5.5182  -5.2776  -4.3494  -3.2329  -1.8009  -0.9935  -0.9534  -0.6203

          k =-0.1000 0.2887 0.0000 ( 29557 PWs)   bands (ev):

   -18.0741 -15.8422 -14.4833 -12.9077 -11.9459 -11.1681  -8.9540  -8.7286
    -6.3231  -5.9198  -5.2321  -3.7555  -1.8034  -0.2606  -0.2562   0.5444

          k =-0.2000 0.2309 0.0000 ( 29557 PWs)   bands (ev):

   -18.0739 -15.8434 -14.4826 -12.9043 -11.9488 -11.1686  -8.9542  -8.7284
    -6.3240  -5.9187  -5.2333  -3.7550  -1.8009  -0.2600  -0.2579   0.5449

          k = 0.3000 0.0577 0.0000 ( 29557 PWs)   bands (ev):

   -18.0737 -15.8449 -14.4810 -12.9044 -11.9458 -11.1719  -8.9553  -8.7283
    -6.3224  -5.9192  -5.2347  -3.7538  -1.8000  -0.2613  -0.2574   0.5470

          k =-0.2000-0.2309 0.0000 ( 29557 PWs)   bands (ev):

   -18.0739 -15.8433 -14.4827 -12.9048 -11.9483 -11.1685  -8.9543  -8.7284
    -6.3242  -5.9186  -5.2331  -3.7551  -1.8011  -0.2616  -0.2579   0.5460

          k = 0.3000-0.0577 0.0000 ( 29557 PWs)   bands (ev):

   -18.0737 -15.8449 -14.4810 -12.9040 -11.9463 -11.1718  -8.9552  -8.7282
    -6.3230  -5.9185  -5.2347  -3.7538  -1.7999  -0.2614  -0.2575   0.5470

          k =-0.1000 0.4041 0.0000 ( 29552 PWs)   bands (ev):

   -17.8308 -16.3484 -14.6173 -12.8731 -11.4812 -10.7181  -8.9524  -8.3408
    -6.9579  -6.3002  -6.0823  -4.0848  -1.9449   0.4574   0.7466   1.2953

          k =-0.3000 0.2887 0.0000 ( 29552 PWs)   bands (ev):

   -17.8301 -16.3507 -14.6163 -12.8682 -11.4854 -10.7188  -8.9530  -8.3402
    -6.9600  -6.2971  -6.0843  -4.0840  -1.9422   0.4589   0.7448   1.2954

          k = 0.4000 0.1155 0.0000 ( 29552 PWs)   bands (ev):

   -17.8299 -16.3516 -14.6153 -12.8688 -11.4819 -10.7216  -8.9553  -8.3400
    -6.9568  -6.2987  -6.0851  -4.0834  -1.9419   0.4577   0.7455   1.2953

          k =-0.3000-0.2887 0.0000 ( 29552 PWs)   bands (ev):

   -17.8302 -16.3505 -14.6163 -12.8687 -11.4847 -10.7188  -8.9531  -8.3403
    -6.9595  -6.2980  -6.0841  -4.0841  -1.9423   0.4573   0.7448   1.2954

          k = 0.4000-0.1155 0.0000 ( 29552 PWs)   bands (ev):

   -17.8298 -16.3517 -14.6154 -12.8682 -11.4827 -10.7214  -8.9551  -8.3400
    -6.9580  -6.2974  -6.0852  -4.0833  -1.9418   0.4578   0.7454   1.2953

          k =-0.1000-0.6351 0.0000 ( 29587 PWs)   bands (ev):

   -17.5801 -16.7363 -14.6910 -12.9083 -10.9906 -10.3908  -9.2780  -7.9154
    -7.3663  -6.7500  -6.3071  -4.2447  -2.0355   1.0044   1.3338   1.8211

          k = 0.6000-0.2309 0.0000 ( 29587 PWs)   bands (ev):

   -17.5781 -16.7403 -14.6896 -12.9034 -10.9943 -10.3921  -9.2793  -7.9136
    -7.3682  -6.7536  -6.3033  -4.2437  -2.0327   1.0070   1.3343   1.8189

          k =-0.5000-0.4041 0.0000 ( 29587 PWs)   bands (ev):

   -17.5779 -16.7406 -14.6893 -12.9040 -10.9917 -10.3934  -9.2812  -7.9134
    -7.3659  -6.7538  -6.3048  -4.2436  -2.0327   1.0066   1.3347   1.8194

          k = 0.6000 0.2309 0.0000 ( 29587 PWs)   bands (ev):

   -17.5782 -16.7401 -14.6896 -12.9039 -10.9934 -10.3922  -9.2797  -7.9137
    -7.3671  -6.7533  -6.3047  -4.2438  -2.0328   1.0056   1.3360   1.8197

          k =-0.5000 0.4041 0.0000 ( 29587 PWs)   bands (ev):

   -17.5779 -16.7408 -14.6893 -12.9034 -10.9927 -10.3932  -9.2807  -7.9133
    -7.3672  -6.7540  -6.3033  -4.2435  -2.0326   1.0066   1.3340   1.8193

          k =-0.2000 0.3464 0.0000 ( 29578 PWs)   bands (ev):

   -17.8656 -16.2589 -14.7260 -12.4894 -11.9070 -10.7115  -8.9932  -8.3995
    -6.6896  -6.3598  -5.8692  -4.3951  -1.1475  -0.1752   0.1212   1.2223

          k = 0.4000 0.0000 0.0000 ( 29578 PWs)   bands (ev):

   -17.8650 -16.2614 -14.7241 -12.4872 -11.9058 -10.7147  -8.9961  -8.3991
    -6.6868  -6.3600  -5.8716  -4.3934  -1.1444  -0.1770   0.1207   1.2224

          k =-0.2000-0.6928 0.0000 ( 29585 PWs)   bands (ev):

   -17.6017 -16.6616 -14.9029 -12.3417 -11.5121 -10.3305  -9.4523  -7.9714
    -6.8655  -6.5218  -6.4953  -4.7660  -0.9871   0.5072   0.5811   1.5145

          k = 0.7000-0.1732 0.0000 ( 29585 PWs)   bands (ev):

   -17.6010 -16.6632 -14.9023 -12.3378 -11.5158 -10.3309  -9.4525  -7.9708
    -6.8686  -6.5233  -6.4917  -4.7653  -0.9851   0.5082   0.5792   1.5148

          k =-0.5000-0.5196 0.0000 ( 29585 PWs)   bands (ev):

   -17.6002 -16.6648 -14.9012 -12.3379 -11.5128 -10.3329  -9.4556  -7.9702
    -6.8652  -6.5249  -6.4932  -4.7644  -0.9841   0.5079   0.5790   1.5149

          k = 0.7000 0.1732 0.0000 ( 29585 PWs)   bands (ev):

   -17.6010 -16.6630 -14.9023 -12.3383 -11.5152 -10.3308  -9.4526  -7.9708
    -6.8680  -6.5231  -6.4927  -4.7654  -0.9853   0.5069   0.5793   1.5160

          k =-0.5000 0.5196 0.0000 ( 29585 PWs)   bands (ev):

   -17.6002 -16.6649 -14.9012 -12.3374 -11.5134 -10.3328  -9.4554  -7.9701
    -6.8665  -6.5249  -6.4918  -4.7643  -0.9840   0.5080   0.5789   1.5144

          k = 0.6000-0.1155 0.0000 ( 29626 PWs)   bands (ev):

   -17.4142 -16.8994 -14.9637 -12.3317 -11.1876 -10.1764  -9.8020  -7.6474
    -7.0101  -6.9317  -6.4083  -4.8816  -0.9901   0.7719   1.0946   1.3376

          k =-0.4000-0.4619 0.0000 ( 29626 PWs)   bands (ev):

   -17.4143 -16.8992 -14.9637 -12.3322 -11.1868 -10.1764  -9.8023  -7.6475
    -7.0090  -6.9315  -6.4097  -4.8816  -0.9902   0.7713   1.0956   1.3377

          k =-0.3000-0.6351 0.0000 ( 29572 PWs)   bands (ev):

   -17.3276 -16.9738 -15.0794 -11.8328 -11.5181 -10.1045 -10.0326  -7.5271
    -6.9774  -6.6950  -6.5875  -5.1491  -0.0889   0.5432   0.6469   1.0192

          k =-0.4000-0.5774 0.0000 ( 29572 PWs)   bands (ev):

   -17.3257 -16.9763 -15.0788 -11.8305 -11.5188 -10.1053 -10.0344  -7.5254
    -6.9799  -6.6969  -6.5847  -5.1484  -0.0858   0.5401   0.6478   1.0185

     the Fermi energy is    -2.6409 ev

!    total energy              =     -50.91653381 Ry
     estimated scf accuracy    <          9.8E-11 Ry
     smearing contrib. (-TS)   =      -0.00049076 Ry
     internal energy E=F+TS    =     -50.91604305 Ry

     The total energy is F=E-TS. E is the sum of the following terms:
     one-electron contribution =    -614.08280213 Ry
     hartree contribution      =     309.54450263 Ry
     xc contribution           =     -23.79073500 Ry
     ewald contribution        =     277.41299144 Ry

     convergence has been achieved in  10 iterations

     negative rho (up, down):  1.289E-05 0.000E+00

     Forces acting on atoms (cartesian axes, Ry/au):

     atom    1 type  1   force =    -0.01371446   -0.00153372    0.00000000
     atom    2 type  1   force =     0.01328334   -0.00156817    0.00000000
     atom    3 type  1   force =    -0.00794899   -0.01177850    0.00000000
     atom    4 type  1   force =     0.00614449    0.01295243    0.00000000
     atom    5 type  1   force =     0.00026551   -0.00030608    0.00000000
     atom    6 type  1   force =    -0.00573060    0.01308300    0.00000000
     atom    7 type  1   force =     0.00724003   -0.01186010    0.00000000
     atom    8 type  1   force =     0.00046068    0.00101114    0.00000000

     Total force =     0.034282     Total SCF correction =     0.000012


     Computing stress (Cartesian axis) and pressure


     negative rho (up, down):  1.289E-05 0.000E+00
          total   stress  (Ry/bohr**3)                   (kbar)     P=        1.13
   0.00001207   0.00000013   0.00000000            1.78        0.02        0.00
   0.00000013   0.00001206   0.00000000            0.02        1.77        0.00
   0.00000000   0.00000000  -0.00000116            0.00        0.00       -0.17


     BFGS Geometry Optimization
     Energy error            =      0.0E+00 Ry
     Gradient error          =      1.4E-02 Ry/Bohr
     Cell gradient error     =      1.8E+00 kbar

     number of scf cycles    =   1
     number of bfgs steps    =   0

     enthalpy           new  =     -50.9165338079 Ry

     new trust radius        =       0.0143359795 bohr
     new conv_thr            =       0.0000000100 Ry

     new unit-cell volume =   3769.36201 a.u.^3 (   558.56182 Ang^3 )
     density =      0.25712 g/cm^3

CELL_PARAMETERS (alat=  9.54630000)
   1.000301743   0.000003300   0.000000000
   0.500153730   0.866288224   0.000000000
   0.000000000   0.000000000   5.000000000

ATOMIC_POSITIONS (angstrom)
B             1.6762482597       -0.0008063250        0.0000000000
B             3.3750473281       -0.0008189567        0.0000000000
B             0.8375510152        1.4517075130        0.0000000000
B             1.6867699837        2.9227408506        0.0000000000
B             2.5254071074        1.4577858537        0.0000000000
B             3.3639918951        2.9228155001        0.0000000000
B             4.2136070890        1.4516754598        0.0000000000
B             5.0517772788        2.9164309850        0.0000000000



     Writing config-only to output data dir ./tmp/x3.save/
     NEW-OLD atomic charge density approx. for the potential

     negative rho (up, down):  1.353E-05 0.000E+00
     extrapolated charge   24.01447, renormalised to   24.00000

     total cpu time spent up to now is      614.4 secs

     Self-consistent Calculation

     iteration #  1     ecut=    60.00 Ry     beta= 0.70
     Davidson diagonalization with overlap
     ethr =  1.00E-06,  avg # of iterations =  5.4

     negative rho (up, down):  1.253E-05 0.000E+00

     total cpu time spent up to now is      694.3 secs

     total energy              =     -50.91699339 Ry
     estimated scf accuracy    <       0.00076625 Ry

     iteration #  2     ecut=    60.00 Ry     beta= 0.70
     Davidson diagonalization with overlap
     ethr =  3.19E-06,  avg # of iterations =  2.5

     negative rho (up, down):  1.280E-05 0.000E+00

     total cpu time spent up to now is      744.4 secs

     total energy              =     -50.91725597 Ry
     estimated scf accuracy    <       0.00036611 Ry

     iteration #  3     ecut=    60.00 Ry     beta= 0.70
     Davidson diagonalization with overlap
     ethr =  1.53E-06,  avg # of iterations =  2.0

     negative rho (up, down):  1.294E-05 0.000E+00

     total cpu time spent up to now is      785.3 secs

     total energy              =     -50.91732090 Ry
     estimated scf accuracy    <       0.00000454 Ry

     iteration #  4     ecut=    60.00 Ry     beta= 0.70
     Davidson diagonalization with overlap
     ethr =  1.89E-08,  avg # of iterations =  2.5

     negative rho (up, down):  1.300E-05 0.000E+00

     total cpu time spent up to now is      833.5 secs

     total energy              =     -50.91732238 Ry
     estimated scf accuracy    <       0.00000025 Ry

     iteration #  5     ecut=    60.00 Ry     beta= 0.70
     Davidson diagonalization with overlap
     ethr =  1.03E-09,  avg # of iterations =  3.3

     negative rho (up, down):  1.301E-05 0.000E+00

     total cpu time spent up to now is      884.0 secs

     total energy              =     -50.91732247 Ry
     estimated scf accuracy    <       0.00000016 Ry

     iteration #  6     ecut=    60.00 Ry     beta= 0.70
     Davidson diagonalization with overlap
     ethr =  6.73E-10,  avg # of iterations =  2.1

     negative rho (up, down):  1.302E-05 0.000E+00

     total cpu time spent up to now is      925.6 secs

     End of self-consistent calculation

          k = 0.0000 0.0000 0.0000 ( 29643 PWs)   bands (ev):

   -18.3592 -14.2239 -14.1455 -14.1452 -11.9509 -11.9503  -9.8532  -9.1910
    -4.3282  -4.3275  -2.7617  -2.2192  -2.2191  -2.0125  -2.0117  -1.6831

          k =-0.0000 0.1154 0.0000 ( 29573 PWs)   bands (ev):

   -18.3140 -14.8243 -14.1894 -13.5818 -12.0117 -11.8333  -9.6521  -9.1217
    -4.8323  -4.7554  -3.5911  -2.6430  -2.1239  -1.5409  -1.4652  -1.1241

          k =-0.0000 0.2309 0.0000 ( 29528 PWs)   bands (ev):

   -18.1805 -15.4477 -14.2911 -13.1709 -11.9747 -11.5195  -9.2193  -8.9158
    -5.7529  -5.5167  -4.6464  -3.1231  -2.3129  -0.6228  -0.4235  -0.2410

          k =-0.0000 0.3463 0.0000 ( 29576 PWs)   bands (ev):

   -17.9669 -16.0263 -14.3982 -13.1058 -11.5676 -11.0915  -8.8911  -8.5812
    -6.6585  -6.1106  -5.6178  -3.4768  -2.5241   0.3385   0.6690   0.7765

          k =-0.0000 0.4617 0.0000 ( 29570 PWs)   bands (ev):

   -17.7029 -16.5154 -14.4740 -13.1720 -11.0145 -10.6701  -8.9492  -8.1509
    -7.3723  -6.4383  -6.2970  -3.6911  -2.6722   1.1250   1.5231   1.6227

          k = 0.0000-0.5772 0.0000 ( 29612 PWs)   bands (ev):

   -17.5353 -16.7590 -14.5009 -13.2053 -10.7166 -10.4728  -9.1178  -7.8494
    -7.6676  -6.8710  -6.2796  -3.7628  -2.7244   1.1633   1.6511   2.0910

          k = 0.1000 0.1732 0.0000 ( 29551 PWs)   bands (ev):

   -18.2246 -15.2763 -14.2950 -13.1916 -12.0780 -11.5886  -9.3407  -8.9840
    -5.5247  -5.2804  -4.3252  -3.2413  -1.8345  -0.9905  -0.9610  -0.6139

          k = 0.1000 0.2886 0.0000 ( 29557 PWs)   bands (ev):

   -18.0501 -15.8112 -14.4588 -12.8909 -11.9563 -11.1722  -8.9858  -8.7128
    -6.3340  -5.9227  -5.2127  -3.7678  -1.8340  -0.2638  -0.2629   0.5527

          k = 0.1000 0.4040 0.0000 ( 29552 PWs)   bands (ev):

   -17.8048 -16.3204 -14.5970 -12.8716 -11.4780 -10.7180  -8.9653  -8.3230
    -6.9680  -6.3147  -6.0671  -4.0978  -1.9741   0.4551   0.7350   1.2920

          k = 0.1000-0.6349 0.0000 ( 29587 PWs)   bands (ev):

   -17.5510 -16.7121 -14.6726 -12.9121 -10.9812 -10.3882  -9.2833  -7.8930
    -7.3724  -6.7408  -6.3300  -4.2577  -2.0641   1.0018   1.2895   1.7981

          k = 0.1999 0.3463 0.0000 ( 29578 PWs)   bands (ev):

   -17.8403 -16.2281 -14.7111 -12.4720 -11.9176 -10.7100  -9.0079  -8.3825
    -6.7115  -6.3600  -5.8472  -4.4172  -1.1831  -0.1768   0.1154   1.2189

          k = 0.1999-0.6926 0.0000 ( 29585 PWs)   bands (ev):

   -17.5740 -16.6330 -14.8931 -12.3331 -11.5107 -10.3268  -9.4602  -7.9515
    -6.8755  -6.5087  -6.5027  -4.7904  -1.0168   0.5002   0.5672   1.4724

          k = 0.1999-0.5772 0.0000 ( 29626 PWs)   bands (ev):

   -17.3865 -16.8694 -14.9567 -12.3308 -11.1755 -10.1709  -9.8108  -7.6254
    -7.0125  -6.9136  -6.4290  -4.9074  -1.0200   0.7619   1.0570   1.3012

          k = 0.2999-0.6349 0.0000 ( 29572 PWs)   bands (ev):

   -17.2983 -16.9447 -15.0755 -11.8210 -11.5116 -10.0997 -10.0457  -7.5046
    -6.9552  -6.6994  -6.6010  -5.1807  -0.1256   0.5173   0.6306   0.9883

          k =-0.1000 0.0577 0.0000 ( 29573 PWs)   bands (ev):

   -18.3140 -14.8245 -14.1891 -13.5818 -12.0116 -11.8336  -9.6521  -9.1217
    -4.8323  -4.7554  -3.5913  -2.6430  -2.1235  -1.5406  -1.4654  -1.1242

          k = 0.1000 0.0577 0.0000 ( 29573 PWs)   bands (ev):

   -18.3140 -14.8245 -14.1891 -13.5817 -12.0113 -11.8338  -9.6521  -9.1217
    -4.8326  -4.7551  -3.5914  -2.6431  -2.1231  -1.5410  -1.4650  -1.1243

          k =-0.1999 0.1154 0.0000 ( 29528 PWs)   bands (ev):

   -18.1804 -15.4480 -14.2910 -13.1704 -11.9750 -11.5197  -9.2192  -8.9158
    -5.7531  -5.5165  -4.6466  -3.1230  -2.3124  -0.6225  -0.4236  -0.2410

          k = 0.1999 0.1154 0.0000 ( 29528 PWs)   bands (ev):

   -18.1804 -15.4480 -14.2910 -13.1704 -11.9746 -11.5201  -9.2193  -8.9158
    -5.7530  -5.5166  -4.6467  -3.1232  -2.3120  -0.6228  -0.4233  -0.2412

          k =-0.2999 0.1732 0.0000 ( 29576 PWs)   bands (ev):

   -17.9668 -16.0266 -14.3980 -13.1052 -11.5681 -11.0916  -8.8911  -8.5812
    -6.6588  -6.1101  -5.6181  -3.4768  -2.5236   0.3389   0.6689   0.7765

          k = 0.2999 0.1732 0.0000 ( 29576 PWs)   bands (ev):

   -17.9668 -16.0267 -14.3980 -13.1051 -11.5676 -11.0921  -8.8912  -8.5812
    -6.6585  -6.1104  -5.6181  -3.4769  -2.5233   0.3386   0.6692   0.7764

          k =-0.3999 0.2309 0.0000 ( 29570 PWs)   bands (ev):

   -17.7027 -16.5158 -14.4738 -13.1714 -11.0151 -10.6702  -8.9493  -8.1508
    -7.3726  -6.4386  -6.2962  -3.6911  -2.6718   1.1255   1.5231   1.6226

          k = 0.3999 0.2309 0.0000 ( 29570 PWs)   bands (ev):

   -17.7027 -16.5159 -14.4738 -13.1713 -11.0144 -10.6708  -8.9495  -8.1508
    -7.3721  -6.4387  -6.2969  -3.6912  -2.6714   1.1250   1.5230   1.6233

          k = 0.4999-0.2886 0.0000 ( 29612 PWs)   bands (ev):

   -17.5350 -16.7596 -14.5008 -13.2046 -10.7173 -10.4728  -9.1179  -7.8491
    -7.6680  -6.8716  -6.2788  -3.7627  -2.7240   1.1629   1.6519   2.0909

          k =-0.4998-0.2886 0.0000 ( 29612 PWs)   bands (ev):

   -17.5350 -16.7597 -14.5007 -13.2045 -10.7164 -10.4736  -9.1183  -7.8491
    -7.6674  -6.8716  -6.2795  -3.7629  -2.7237   1.1635   1.6512   2.0921

          k =-0.1000 0.1732 0.0000 ( 29551 PWs)   bands (ev):

   -18.2246 -15.2762 -14.2950 -13.1916 -12.0783 -11.5883  -9.3407  -8.9840
    -5.5242  -5.2810  -4.3251  -3.2413  -1.8347  -0.9898  -0.9611  -0.6146

          k = 0.1999-0.0000 0.0000 ( 29551 PWs)   bands (ev):

   -18.2245 -15.2765 -14.2947 -13.1915 -12.0779 -11.5889  -9.3407  -8.9840
    -5.5245  -5.2806  -4.3254  -3.2411  -1.8342  -0.9901  -0.9611  -0.6141

          k =-0.1000 0.2886 0.0000 ( 29557 PWs)   bands (ev):

   -18.0501 -15.8112 -14.4588 -12.8909 -11.9565 -11.1720  -8.9857  -8.7128
    -6.3335  -5.9232  -5.2126  -3.7678  -1.8341  -0.2639  -0.2622   0.5520

          k =-0.1999 0.2309 0.0000 ( 29557 PWs)   bands (ev):

   -18.0500 -15.8113 -14.4587 -12.8905 -11.9570 -11.1720  -8.9857  -8.7128
    -6.3337  -5.9230  -5.2128  -3.7678  -1.8338  -0.2641  -0.2621   0.5521

          k = 0.2999 0.0577 0.0000 ( 29557 PWs)   bands (ev):

   -18.0500 -15.8116 -14.4585 -12.8904 -11.9564 -11.1727  -8.9859  -8.7128
    -6.3336  -5.9230  -5.2130  -3.7676  -1.8335  -0.2641  -0.2624   0.5525

          k =-0.1999-0.2309 0.0000 ( 29557 PWs)   bands (ev):

   -18.0500 -15.8114 -14.4587 -12.8904 -11.9566 -11.1723  -8.9858  -8.7128
    -6.3341  -5.9226  -5.2128  -3.7678  -1.8336  -0.2641  -0.2628   0.5527

          k = 0.2999-0.0577 0.0000 ( 29557 PWs)   bands (ev):

   -18.0500 -15.8116 -14.4585 -12.8904 -11.9565 -11.1726  -8.9859  -8.7128
    -6.3338  -5.9227  -5.2130  -3.7676  -1.8337  -0.2640  -0.2625   0.5526

          k =-0.1000 0.4040 0.0000 ( 29552 PWs)   bands (ev):

   -17.8048 -16.3204 -14.5970 -12.8716 -11.4781 -10.7178  -8.9652  -8.3230
    -6.9677  -6.3150  -6.0671  -4.0978  -1.9742   0.4557   0.7348   1.2920

          k =-0.2999 0.2886 0.0000 ( 29552 PWs)   bands (ev):

   -17.8047 -16.3206 -14.5969 -12.8710 -11.4788 -10.7178  -8.9652  -8.3229
    -6.9682  -6.3144  -6.0674  -4.0977  -1.9739   0.4559   0.7347   1.2920

          k = 0.3999 0.1154 0.0000 ( 29552 PWs)   bands (ev):

   -17.8047 -16.3208 -14.5968 -12.8709 -11.4781 -10.7185  -8.9656  -8.3229
    -6.9676  -6.3149  -6.0675  -4.0976  -1.9736   0.4557   0.7346   1.2920

          k =-0.2999-0.2886 0.0000 ( 29552 PWs)   bands (ev):

   -17.8047 -16.3207 -14.5969 -12.8709 -11.4784 -10.7182  -8.9654  -8.3229
    -6.9681  -6.3146  -6.0674  -4.0977  -1.9737   0.4553   0.7346   1.2920

          k = 0.3999-0.1154 0.0000 ( 29552 PWs)   bands (ev):

   -17.8047 -16.3208 -14.5968 -12.8710 -11.4783 -10.7183  -8.9656  -8.3229
    -6.9680  -6.3143  -6.0675  -4.0976  -1.9738   0.4555   0.7348   1.2920

          k =-0.1000-0.6349 0.0000 ( 29587 PWs)   bands (ev):

   -17.5510 -16.7121 -14.6726 -12.9121 -10.9812 -10.3882  -9.2833  -7.8930
    -7.3724  -6.7408  -6.3300  -4.2577  -2.0641   1.0019   1.2898   1.7980

          k = 0.5998-0.2309 0.0000 ( 29587 PWs)   bands (ev):

   -17.5507 -16.7126 -14.6725 -12.9115 -10.9819 -10.3882  -9.2833  -7.8927
    -7.3729  -6.7412  -6.3293  -4.2576  -2.0639   1.0023   1.2894   1.7978

          k =-0.4998-0.4040 0.0000 ( 29587 PWs)   bands (ev):

   -17.5507 -16.7127 -14.6724 -12.9114 -10.9813 -10.3887  -9.2838  -7.8927
    -7.3722  -6.7413  -6.3299  -4.2576  -2.0636   1.0023   1.2899   1.7977

          k = 0.5998 0.2309 0.0000 ( 29587 PWs)   bands (ev):

   -17.5507 -16.7126 -14.6724 -12.9114 -10.9814 -10.3886  -9.2836  -7.8927
    -7.3724  -6.7413  -6.3299  -4.2576  -2.0636   1.0019   1.2902   1.7988

          k =-0.4999 0.4040 0.0000 ( 29587 PWs)   bands (ev):

   -17.5507 -16.7126 -14.6724 -12.9115 -10.9816 -10.3884  -9.2836  -7.8927
    -7.3728  -6.7413  -6.3292  -4.2575  -2.0638   1.0021   1.2895   1.7979

          k =-0.1999 0.3463 0.0000 ( 29578 PWs)   bands (ev):

   -17.8403 -16.2280 -14.7111 -12.4720 -11.9179 -10.7098  -9.0078  -8.3825
    -6.7109  -6.3606  -5.8472  -4.4172  -1.1833  -0.1768   0.1161   1.2189

          k = 0.3999-0.0000 0.0000 ( 29578 PWs)   bands (ev):

   -17.8402 -16.2284 -14.7109 -12.4717 -11.9176 -10.7104  -9.0082  -8.3824
    -6.7108  -6.3604  -5.8475  -4.4170  -1.1828  -0.1771   0.1158   1.2189

          k =-0.1999-0.6926 0.0000 ( 29585 PWs)   bands (ev):

   -17.5740 -16.6330 -14.8931 -12.3331 -11.5109 -10.3267  -9.4600  -7.9515
    -6.8753  -6.5090  -6.5026  -4.7905  -1.0169   0.5007   0.5671   1.4725

          k = 0.6998-0.1732 0.0000 ( 29585 PWs)   bands (ev):

   -17.5739 -16.6332 -14.8931 -12.3326 -11.5114 -10.3267  -9.4600  -7.9514
    -6.8759  -6.5083  -6.5028  -4.7904  -1.0167   0.5008   0.5669   1.4722

          k =-0.4998-0.5195 0.0000 ( 29585 PWs)   bands (ev):

   -17.5738 -16.6334 -14.8929 -12.3325 -11.5109 -10.3271  -9.4605  -7.9513
    -6.8751  -6.5088  -6.5031  -4.7902  -1.0163   0.5007   0.5668   1.4726

          k = 0.6998 0.1732 0.0000 ( 29585 PWs)   bands (ev):

   -17.5739 -16.6332 -14.8931 -12.3326 -11.5111 -10.3269  -9.4602  -7.9514
    -6.8756  -6.5086  -6.5029  -4.7904  -1.0165   0.5003   0.5668   1.4727

          k =-0.4999 0.5195 0.0000 ( 29585 PWs)   bands (ev):

   -17.5738 -16.6334 -14.8929 -12.3325 -11.5110 -10.3270  -9.4605  -7.9513
    -6.8757  -6.5082  -6.5030  -4.7902  -1.0165   0.5007   0.5669   1.4722

          k = 0.5998-0.1154 0.0000 ( 29626 PWs)   bands (ev):

   -17.3861 -16.8699 -14.9565 -12.3302 -11.1760 -10.1710  -9.8109  -7.6251
    -7.0131  -6.9141  -6.4282  -4.9073  -1.0197   0.7624   1.0566   1.3008

          k =-0.3999-0.4617 0.0000 ( 29626 PWs)   bands (ev):

   -17.3861 -16.8699 -14.9565 -12.3302 -11.1758 -10.1712  -9.8111  -7.6251
    -7.0125  -6.9142  -6.4289  -4.9072  -1.0195   0.7623   1.0570   1.3007

          k =-0.2999-0.6349 0.0000 ( 29572 PWs)   bands (ev):

   -17.2983 -16.9446 -15.0755 -11.8210 -11.5118 -10.0996 -10.0456  -7.5046
    -6.9552  -6.7000  -6.6004  -5.1807  -0.1258   0.5173   0.6308   0.9882

          k =-0.3999-0.5772 0.0000 ( 29572 PWs)   bands (ev):

   -17.2981 -16.9450 -15.0754 -11.8206 -11.5119 -10.0998 -10.0459  -7.5044
    -6.9556  -6.7001  -6.6002  -5.1806  -0.1253   0.5169   0.6309   0.9881

     the Fermi energy is    -2.6603 ev

!    total energy              =     -50.91732250 Ry
     estimated scf accuracy    <          4.8E-09 Ry
     smearing contrib. (-TS)   =      -0.00049521 Ry
     internal energy E=F+TS    =     -50.91682729 Ry

     The total energy is F=E-TS. E is the sum of the following terms:
     one-electron contribution =    -613.49439936 Ry
     hartree contribution      =     309.24382727 Ry
     xc contribution           =     -23.77369725 Ry
     ewald contribution        =     277.10744205 Ry

     convergence has been achieved in   6 iterations

     negative rho (up, down):  1.302E-05 0.000E+00

     Forces acting on atoms (cartesian axes, Ry/au):

     atom    1 type  1   force =    -0.00447505   -0.00010769    0.00000000
     atom    2 type  1   force =     0.00420885   -0.00011279    0.00000000
     atom    3 type  1   force =    -0.00224829   -0.00386860    0.00000000
     atom    4 type  1   force =     0.00226520    0.00382809    0.00000000
     atom    5 type  1   force =     0.00009003    0.00004007    0.00000000
     atom    6 type  1   force =    -0.00210904    0.00386374    0.00000000
     atom    7 type  1   force =     0.00201367   -0.00384468    0.00000000
     atom    8 type  1   force =     0.00025463    0.00020187    0.00000000

     Total force =     0.010766     Total SCF correction =     0.000078


     Computing stress (Cartesian axis) and pressure


     negative rho (up, down):  1.302E-05 0.000E+00
          total   stress  (Ry/bohr**3)                   (kbar)     P=        0.33
   0.00000396   0.00000006   0.00000000            0.58        0.01        0.00
   0.00000006   0.00000396   0.00000000            0.01        0.58        0.00
   0.00000000   0.00000000  -0.00000122            0.00        0.00       -0.18

     Energy error            =      7.9E-04 Ry
     Gradient error          =      4.5E-03 Ry/Bohr
     Cell gradient error     =      5.8E-01 kbar

     number of scf cycles    =   2
     number of bfgs steps    =   1

     enthalpy           old  =     -50.9165338079 Ry
     enthalpy           new  =     -50.9173225012 Ry

     CASE: enthalpy          _new < enthalpy          _old

     new trust radius        =       0.0065435693 bohr
     new conv_thr            =       0.0000000004 Ry

     new unit-cell volume =   3770.45198 a.u.^3 (   558.72334 Ang^3 )
     density =      0.25704 g/cm^3

CELL_PARAMETERS (alat=  9.54630000)
   1.000446466   0.000005393   0.000000000
   0.500227904   0.866414421   0.000000000
   0.000000000   0.000000000   5.000000000

ATOMIC_POSITIONS (angstrom)
B             1.6730285930       -0.0008872449        0.0000000000
B             3.3787921636       -0.0009002339        0.0000000000
B             0.8359349302        1.4489260455        0.0000000000
B             1.6887720270        2.9261292668        0.0000000000
B             2.5258451745        1.4580323931        0.0000000000
B             3.3628536347        2.9262350000        0.0000000000
B             4.2157784817        1.4489194586        0.0000000000
B             5.0527110092        2.9170193744        0.0000000000



     Writing config-only to output data dir ./tmp/x3.save/
     NEW-OLD atomic charge density approx. for the potential

     negative rho (up, down):  1.242E-05 0.000E+00
     extrapolated charge   24.00694, renormalised to   24.00000

     total cpu time spent up to now is     1021.6 secs

     Self-consistent Calculation

     iteration #  1     ecut=    60.00 Ry     beta= 0.70
     Davidson diagonalization with overlap
     ethr =  1.00E-06,  avg # of iterations =  4.0

     negative rho (up, down):  1.276E-05 0.000E+00

     total cpu time spent up to now is     1082.2 secs

     total energy              =     -50.91734352 Ry
     estimated scf accuracy    <       0.00015190 Ry

     iteration #  2     ecut=    60.00 Ry     beta= 0.70
     Davidson diagonalization with overlap
     ethr =  6.33E-07,  avg # of iterations =  2.1

     negative rho (up, down):  1.297E-05 0.000E+00

     total cpu time spent up to now is     1130.0 secs

     total energy              =     -50.91739656 Ry
     estimated scf accuracy    <       0.00007032 Ry

     iteration #  3     ecut=    60.00 Ry     beta= 0.70
     Davidson diagonalization with overlap
     ethr =  2.93E-07,  avg # of iterations =  2.0

     negative rho (up, down):  1.305E-05 0.000E+00

     total cpu time spent up to now is     1171.9 secs

     total energy              =     -50.91740922 Ry
     estimated scf accuracy    <       0.00000089 Ry

     iteration #  4     ecut=    60.00 Ry     beta= 0.70
     Davidson diagonalization with overlap
     ethr =  3.70E-09,  avg # of iterations =  3.1

     negative rho (up, down):  1.308E-05 0.000E+00

     total cpu time spent up to now is     1224.3 secs

     total energy              =     -50.91740955 Ry
     estimated scf accuracy    <       0.00000003 Ry

     iteration #  5     ecut=    60.00 Ry     beta= 0.70
     Davidson diagonalization with overlap
     ethr =  1.38E-10,  avg # of iterations =  3.8

     negative rho (up, down):  1.309E-05 0.000E+00

     total cpu time spent up to now is     1281.9 secs

     total energy              =     -50.91740957 Ry
     estimated scf accuracy    <          7.1E-09 Ry

     iteration #  6     ecut=    60.00 Ry     beta= 0.70
     Davidson diagonalization with overlap
     ethr =  2.94E-11,  avg # of iterations =  2.0

     negative rho (up, down):  1.309E-05 0.000E+00

     total cpu time spent up to now is     1324.3 secs

     total energy              =     -50.91740957 Ry
     estimated scf accuracy    <          9.8E-10 Ry

     iteration #  7     ecut=    60.00 Ry     beta= 0.70
     Davidson diagonalization with overlap
     ethr =  4.07E-12,  avg # of iterations =  2.2

     negative rho (up, down):  1.309E-05 0.000E+00

     total cpu time spent up to now is     1369.6 secs

     End of self-consistent calculation

          k = 0.0000 0.0000 0.0000 ( 29643 PWs)   bands (ev):

   -18.3490 -14.2082 -14.1288 -14.1287 -11.9579 -11.9577  -9.8831  -9.1845
    -4.3316  -4.3310  -2.7577  -2.1973  -2.1972  -2.0074  -2.0072  -1.7111

          k =-0.0000 0.1154 0.0000 ( 29573 PWs)   bands (ev):

   -18.3037 -14.8086 -14.1734 -13.5667 -12.0198 -11.8400  -9.6788  -9.1152
    -4.8348  -4.7575  -3.5816  -2.6373  -2.1376  -1.5381  -1.4616  -1.1360

          k =-0.0000 0.2308 0.0000 ( 29528 PWs)   bands (ev):

   -18.1698 -15.4329 -14.2768 -13.1624 -11.9795 -11.5243  -9.2394  -8.9090
    -5.7548  -5.5191  -4.6381  -3.1212  -2.3312  -0.6227  -0.4207  -0.2492

          k =-0.0000 0.3463 0.0000 ( 29576 PWs)   bands (ev):

   -17.9556 -16.0127 -14.3851 -13.1072 -11.5647 -11.0943  -8.9025  -8.5738
    -6.6606  -6.1166  -5.6110  -3.4761  -2.5426   0.3373   0.6723   0.7694

          k =-0.0000 0.4617 0.0000 ( 29570 PWs)   bands (ev):

   -17.6905 -16.5033 -14.4618 -13.1778 -11.0085 -10.6713  -8.9522  -8.1422
    -7.3750  -6.4334  -6.3080  -3.6908  -2.6905   1.1236   1.5204   1.6298

          k = 0.0000-0.5771 0.0000 ( 29612 PWs)   bands (ev):

   -17.5218 -16.7482 -14.4890 -13.2121 -10.7098 -10.4732  -9.1181  -7.8385
    -7.6708  -6.8685  -6.2921  -3.7626  -2.7427   1.1400   1.6501   2.1044

          k = 0.1000 0.1731 0.0000 ( 29551 PWs)   bands (ev):

   -18.2140 -15.2608 -14.2813 -13.1783 -12.0870 -11.5928  -9.3628  -8.9773
    -5.5274  -5.2815  -4.3150  -3.2453  -1.8491  -0.9895  -0.9639  -0.6113

          k = 0.1000 0.2885 0.0000 ( 29557 PWs)   bands (ev):

   -18.0390 -15.7966 -14.4480 -12.8841 -11.9609 -11.1738  -9.0003  -8.7057
    -6.3385  -5.9242  -5.2036  -3.7741  -1.8485  -0.2666  -0.2638   0.5550

          k = 0.1000 0.4040 0.0000 ( 29552 PWs)   bands (ev):

   -17.7929 -16.3071 -14.5881 -12.8719 -11.4762 -10.7177  -8.9709  -8.3150
    -6.9722  -6.3217  -6.0600  -4.1042  -1.9878   0.4539   0.7300   1.2906

          k = 0.1000-0.6348 0.0000 ( 29587 PWs)   bands (ev):

   -17.5378 -16.7003 -14.6647 -12.9147 -10.9767 -10.3869  -9.2853  -7.8830
    -7.3749  -6.7362  -6.3409  -4.2640  -2.0775   0.9996   1.2686   1.7877

          k = 0.1999 0.3463 0.0000 ( 29578 PWs)   bands (ev):

   -17.8287 -16.2136 -14.7047 -12.4644 -11.9228 -10.7091  -9.0144  -8.3747
    -6.7212  -6.3603  -5.8370  -4.4278  -1.1998  -0.1771   0.1129   1.2175

          k = 0.1999-0.6925 0.0000 ( 29585 PWs)   bands (ev):

   -17.5613 -16.6194 -14.8891 -12.3300 -11.5098 -10.3250  -9.4633  -7.9425
    -6.8797  -6.5153  -6.4936  -4.8021  -1.0309   0.4969   0.5611   1.4519

          k = 0.1999-0.5771 0.0000 ( 29626 PWs)   bands (ev):

   -17.3728 -16.8568 -14.9534 -12.3292 -11.1712 -10.1690  -9.8150  -7.6146
    -7.0143  -6.9067  -6.4372  -4.9190  -1.0329   0.7580   1.0384   1.2835

          k = 0.2999-0.6348 0.0000 ( 29572 PWs)   bands (ev):

   -17.2849 -16.9310 -15.0740 -11.8159 -11.5091 -10.0976 -10.0512  -7.4945
    -6.9449  -6.7016  -6.6068  -5.1955  -0.1427   0.5054   0.6230   0.9734

          k =-0.1000 0.0577 0.0000 ( 29573 PWs)   bands (ev):

   -18.3037 -14.8086 -14.1734 -13.5668 -12.0199 -11.8398  -9.6788  -9.1152
    -4.8346  -4.7577  -3.5816  -2.6373  -2.1379  -1.5381  -1.4616  -1.1359

          k = 0.1000 0.0577 0.0000 ( 29573 PWs)   bands (ev):

   -18.3037 -14.8086 -14.1735 -13.5667 -12.0198 -11.8400  -9.6788  -9.1152
    -4.8349  -4.7574  -3.5816  -2.6374  -2.1376  -1.5381  -1.4616  -1.1360

          k =-0.1999 0.1154 0.0000 ( 29528 PWs)   bands (ev):

   -18.1698 -15.4328 -14.2768 -13.1625 -11.9796 -11.5241  -9.2394  -8.9090
    -5.7546  -5.5191  -4.6380  -3.1211  -2.3315  -0.6227  -0.4207  -0.2491

          k = 0.1999 0.1154 0.0000 ( 29528 PWs)   bands (ev):

   -18.1698 -15.4329 -14.2768 -13.1624 -11.9794 -11.5243  -9.2394  -8.9090
    -5.7548  -5.5190  -4.6381  -3.1212  -2.3312  -0.6226  -0.4208  -0.2492

          k =-0.2999 0.1731 0.0000 ( 29576 PWs)   bands (ev):

   -17.9556 -16.0126 -14.3852 -13.1075 -11.5648 -11.0941  -8.9024  -8.5738
    -6.6605  -6.1166  -5.6109  -3.4760  -2.5429   0.3372   0.6723   0.7695

          k = 0.2999 0.1731 0.0000 ( 29576 PWs)   bands (ev):

   -17.9556 -16.0127 -14.3852 -13.1073 -11.5646 -11.0944  -8.9024  -8.5738
    -6.6606  -6.1167  -5.6110  -3.4761  -2.5426   0.3373   0.6722   0.7693

          k =-0.3998 0.2308 0.0000 ( 29570 PWs)   bands (ev):

   -17.6905 -16.5032 -14.4618 -13.1780 -11.0085 -10.6710  -8.9521  -8.1422
    -7.3750  -6.4333  -6.3079  -3.6908  -2.6908   1.1236   1.5204   1.6296

          k = 0.3998 0.2308 0.0000 ( 29570 PWs)   bands (ev):

   -17.6905 -16.5032 -14.4618 -13.1778 -11.0083 -10.6715  -8.9521  -8.1422
    -7.3749  -6.4334  -6.3082  -3.6909  -2.6905   1.1236   1.5204   1.6298

          k = 0.4998-0.2885 0.0000 ( 29612 PWs)   bands (ev):

   -17.5219 -16.7480 -14.4890 -13.2123 -10.7099 -10.4729  -9.1180  -7.8386
    -7.6708  -6.8684  -6.2920  -3.7626  -2.7430   1.1400   1.6498   2.1040

          k =-0.4998-0.2885 0.0000 ( 29612 PWs)   bands (ev):

   -17.5219 -16.7481 -14.4890 -13.2121 -10.7095 -10.4734  -9.1180  -7.8386
    -7.6707  -6.8684  -6.2923  -3.7627  -2.7426   1.1400   1.6500   2.1044

          k =-0.1000 0.1731 0.0000 ( 29551 PWs)   bands (ev):

   -18.2140 -15.2608 -14.2812 -13.1784 -12.0872 -11.5926  -9.3628  -8.9773
    -5.5270  -5.2820  -4.3150  -3.2452  -1.8494  -0.9893  -0.9639  -0.6116

          k = 0.1999-0.0000 0.0000 ( 29551 PWs)   bands (ev):

   -18.2140 -15.2608 -14.2813 -13.1784 -12.0872 -11.5926  -9.3628  -8.9773
    -5.5272  -5.2818  -4.3149  -3.2453  -1.8493  -0.9894  -0.9639  -0.6115

          k =-0.1000 0.2885 0.0000 ( 29557 PWs)   bands (ev):

   -18.0390 -15.7966 -14.4479 -12.8842 -11.9610 -11.1736  -9.0003  -8.7057
    -6.3382  -5.9246  -5.2036  -3.7741  -1.8486  -0.2668  -0.2636   0.5547

          k =-0.1999 0.2308 0.0000 ( 29557 PWs)   bands (ev):

   -18.0390 -15.7966 -14.4480 -12.8843 -11.9609 -11.1735  -9.0003  -8.7057
    -6.3381  -5.9246  -5.2035  -3.7741  -1.8487  -0.2667  -0.2636   0.5548

          k = 0.2999 0.0577 0.0000 ( 29557 PWs)   bands (ev):

   -18.0390 -15.7966 -14.4480 -12.8842 -11.9609 -11.1736  -9.0003  -8.7057
    -6.3384  -5.9245  -5.2035  -3.7741  -1.8485  -0.2668  -0.2636   0.5548

          k =-0.1999-0.2308 0.0000 ( 29557 PWs)   bands (ev):

   -18.0390 -15.7966 -14.4480 -12.8842 -11.9608 -11.1738  -9.0003  -8.7057
    -6.3385  -5.9243  -5.2036  -3.7741  -1.8485  -0.2667  -0.2638   0.5550

          k = 0.2999-0.0577 0.0000 ( 29557 PWs)   bands (ev):

   -18.0390 -15.7966 -14.4480 -12.8843 -11.9609 -11.1735  -9.0003  -8.7057
    -6.3384  -5.9244  -5.2035  -3.7741  -1.8487  -0.2666  -0.2637   0.5548

          k =-0.1000 0.4040 0.0000 ( 29552 PWs)   bands (ev):

   -17.7929 -16.3071 -14.5881 -12.8720 -11.4763 -10.7175  -8.9709  -8.3150
    -6.9721  -6.3219  -6.0600  -4.1042  -1.9879   0.4541   0.7298   1.2906

          k =-0.2999 0.2885 0.0000 ( 29552 PWs)   bands (ev):

   -17.7930 -16.3070 -14.5882 -12.8722 -11.4762 -10.7174  -8.9709  -8.3150
    -6.9721  -6.3218  -6.0599  -4.1042  -1.9881   0.4540   0.7300   1.2906

          k = 0.3998 0.1154 0.0000 ( 29552 PWs)   bands (ev):

   -17.7930 -16.3070 -14.5882 -12.8720 -11.4762 -10.7176  -8.9708  -8.3150
    -6.9721  -6.3219  -6.0599  -4.1042  -1.9878   0.4541   0.7299   1.2906

          k =-0.2999-0.2885 0.0000 ( 29552 PWs)   bands (ev):

   -17.7930 -16.3070 -14.5882 -12.8720 -11.4760 -10.7177  -8.9709  -8.3150
    -6.9721  -6.3219  -6.0599  -4.1042  -1.9878   0.4540   0.7300   1.2906

          k = 0.3998-0.1154 0.0000 ( 29552 PWs)   bands (ev):

   -17.7930 -16.3069 -14.5882 -12.8721 -11.4762 -10.7174  -8.9708  -8.3150
    -6.9722  -6.3217  -6.0599  -4.1043  -1.9881   0.4539   0.7301   1.2906

          k =-0.1000-0.6348 0.0000 ( 29587 PWs)   bands (ev):

   -17.5378 -16.7003 -14.6647 -12.9147 -10.9768 -10.3869  -9.2852  -7.8830
    -7.3749  -6.7362  -6.3410  -4.2640  -2.0775   0.9996   1.2687   1.7876

          k = 0.5997-0.2308 0.0000 ( 29587 PWs)   bands (ev):

   -17.5379 -16.7002 -14.6647 -12.9149 -10.9767 -10.3867  -9.2851  -7.8830
    -7.3749  -6.7361  -6.3409  -4.2641  -2.0777   0.9995   1.2685   1.7877

          k =-0.4998-0.4040 0.0000 ( 29587 PWs)   bands (ev):

   -17.5379 -16.7002 -14.6647 -12.9148 -10.9767 -10.3869  -9.2851  -7.8831
    -7.3748  -6.7361  -6.3412  -4.2641  -2.0775   0.9996   1.2687   1.7876

          k = 0.5997 0.2308 0.0000 ( 29587 PWs)   bands (ev):

   -17.5379 -16.7002 -14.6647 -12.9148 -10.9766 -10.3870  -9.2852  -7.8831
    -7.3748  -6.7361  -6.3412  -4.2641  -2.0775   0.9996   1.2686   1.7887

          k =-0.4998 0.4040 0.0000 ( 29587 PWs)   bands (ev):

   -17.5379 -16.7001 -14.6647 -12.9149 -10.9767 -10.3867  -9.2851  -7.8831
    -7.3750  -6.7360  -6.3409  -4.2641  -2.0777   0.9995   1.2685   1.7878

          k =-0.1999 0.3463 0.0000 ( 29578 PWs)   bands (ev):

   -17.8287 -16.2136 -14.7047 -12.4645 -11.9229 -10.7089  -9.0143  -8.3747
    -6.7208  -6.3607  -5.8370  -4.4278  -1.2000  -0.1771   0.1130   1.2175

          k = 0.3998-0.0000 0.0000 ( 29578 PWs)   bands (ev):

   -17.8287 -16.2136 -14.7047 -12.4645 -11.9229 -10.7089  -9.0143  -8.3747
    -6.7211  -6.3605  -5.8369  -4.4279  -1.2000  -0.1771   0.1129   1.2175

          k =-0.1999-0.6925 0.0000 ( 29585 PWs)   bands (ev):

   -17.5613 -16.6194 -14.8891 -12.3300 -11.5100 -10.3249  -9.4632  -7.9425
    -6.8796  -6.5154  -6.4936  -4.8021  -1.0309   0.4970   0.5610   1.4519

          k = 0.6997-0.1731 0.0000 ( 29585 PWs)   bands (ev):

   -17.5614 -16.6194 -14.8891 -12.3302 -11.5099 -10.3248  -9.4632  -7.9425
    -6.8796  -6.5154  -6.4935  -4.8021  -1.0311   0.4970   0.5611   1.4519

          k =-0.4998-0.5194 0.0000 ( 29585 PWs)   bands (ev):

   -17.5614 -16.6193 -14.8892 -12.3301 -11.5099 -10.3249  -9.4631  -7.9426
    -6.8795  -6.5155  -6.4935  -4.8021  -1.0309   0.4970   0.5610   1.4519

          k = 0.6997 0.1731 0.0000 ( 29585 PWs)   bands (ev):

   -17.5614 -16.6194 -14.8891 -12.3301 -11.5098 -10.3250  -9.4633  -7.9426
    -6.8795  -6.5155  -6.4936  -4.8021  -1.0308   0.4969   0.5611   1.4519

          k =-0.4998 0.5194 0.0000 ( 29585 PWs)   bands (ev):

   -17.5614 -16.6193 -14.8892 -12.3302 -11.5099 -10.3248  -9.4632  -7.9426
    -6.8797  -6.5153  -6.4935  -4.8021  -1.0311   0.4969   0.5612   1.4519

          k = 0.5997-0.1154 0.0000 ( 29626 PWs)   bands (ev):

   -17.3729 -16.8567 -14.9534 -12.3294 -11.1711 -10.1689  -9.8149  -7.6147
    -7.0143  -6.9066  -6.4371  -4.9191  -1.0331   0.7578   1.0385   1.2836

          k =-0.3998-0.4617 0.0000 ( 29626 PWs)   bands (ev):

   -17.3729 -16.8567 -14.9534 -12.3292 -11.1711 -10.1690  -9.8149  -7.6147
    -7.0141  -6.9066  -6.4374  -4.9191  -1.0328   0.7580   1.0384   1.2835

          k =-0.2999-0.6348 0.0000 ( 29572 PWs)   bands (ev):

   -17.2849 -16.9310 -15.0740 -11.8160 -11.5091 -10.0975 -10.0512  -7.4945
    -6.9449  -6.7020  -6.6065  -5.1955  -0.1429   0.5054   0.6229   0.9735

          k =-0.3998-0.5771 0.0000 ( 29572 PWs)   bands (ev):

   -17.2850 -16.9309 -15.0741 -11.8160 -11.5091 -10.0975 -10.0512  -7.4946
    -6.9448  -6.7017  -6.6067  -5.1955  -0.1429   0.5055   0.6229   0.9735

     the Fermi energy is    -2.6704 ev

!    total energy              =     -50.91740957 Ry
     estimated scf accuracy    <          2.0E-10 Ry
     smearing contrib. (-TS)   =      -0.00047718 Ry
     internal energy E=F+TS    =     -50.91693239 Ry

     The total energy is F=E-TS. E is the sum of the following terms:
     one-electron contribution =    -613.21982513 Ry
     hartree contribution      =     309.10412483 Ry
     xc contribution           =     -23.76614843 Ry
     ewald contribution        =     276.96491634 Ry

     convergence has been achieved in   7 iterations

     negative rho (up, down):  1.309E-05 0.000E+00

     Forces acting on atoms (cartesian axes, Ry/au):

     atom    1 type  1   force =    -0.00006747    0.00001599    0.00000000
     atom    2 type  1   force =    -0.00003652    0.00002561    0.00000000
     atom    3 type  1   force =    -0.00002146   -0.00002920    0.00000000
     atom    4 type  1   force =     0.00002711   -0.00000556    0.00000000
     atom    5 type  1   force =     0.00001230    0.00003610    0.00000000
     atom    6 type  1   force =     0.00000926   -0.00004500    0.00000000
     atom    7 type  1   force =    -0.00000720    0.00000766    0.00000000
     atom    8 type  1   force =     0.00008398   -0.00000562    0.00000000

     Total force =     0.000140     Total SCF correction =     0.000009


     Computing stress (Cartesian axis) and pressure


     negative rho (up, down):  1.309E-05 0.000E+00
          total   stress  (Ry/bohr**3)                   (kbar)     P=       -0.01
   0.00000047   0.00000001   0.00000000            0.07        0.00        0.00
   0.00000001   0.00000048   0.00000000            0.00        0.07        0.00
   0.00000000   0.00000000  -0.00000115            0.00        0.00       -0.17

     Energy error            =      8.7E-05 Ry
     Gradient error          =      8.4E-05 Ry/Bohr
     Cell gradient error     =      7.0E-02 kbar

     bfgs converged in   3 scf cycles and   2 bfgs steps
     (criteria: energy <  1.0E-04 Ry, force <  1.0E-03 Ry/Bohr, cell <  5.0E-01 kbar)

     End of BFGS Geometry Optimization

     Final enthalpy           =     -50.9174095689 Ry

     File ./tmp/x3.bfgs deleted, as requested
Begin final coordinates
     new unit-cell volume =   3770.45198 a.u.^3 (   558.72334 Ang^3 )
     density =      0.25704 g/cm^3

CELL_PARAMETERS (alat=  9.54630000)
   1.000446466   0.000005393   0.000000000
   0.500227904   0.866414421   0.000000000
   0.000000000   0.000000000   5.000000000

ATOMIC_POSITIONS (angstrom)
B             1.6730285930       -0.0008872449        0.0000000000
B             3.3787921636       -0.0009002339        0.0000000000
B             0.8359349302        1.4489260455        0.0000000000
B             1.6887720270        2.9261292668        0.0000000000
B             2.5258451745        1.4580323931        0.0000000000
B             3.3628536347        2.9262350000        0.0000000000
B             4.2157784817        1.4489194586        0.0000000000
B             5.0527110092        2.9170193744        0.0000000000
End final coordinates



     Writing config-only to output data dir ./tmp/x3.save/

     Final scf calculation at the relaxed structure.
     The G-vectors are recalculated for the final unit cell
     Results may differ from those at the preceding step.

     G-vector sticks info
     --------------------
     sticks:   dense  smooth     PW     G-vecs:    dense   smooth      PW
     Sum        2527    1507    433               509649   236969   35393

     Using Slab Decomposition



     bravais-lattice index     =           12
     lattice parameter (alat)  =       9.5463  a.u.
     unit-cell volume          =    3770.4520 (a.u.)^3
     number of atoms/cell      =            8
     number of atomic types    =            1
     number of electrons       =        24.00
     number of Kohn-Sham states=           16
     kinetic-energy cutoff     =      60.0000  Ry
     charge density cutoff     =     400.0000  Ry
     scf convergence threshold =      4.5E-10
     mixing beta               =       0.7000
     number of iterations used =            8  plain     mixing
     press convergence thresh. =      5.0E-01
     Exchange-correlation=  SLA  PW   PBX  PBC
                           (   1   4   3   4   0   0   0)

     celldm(1)=   9.546300  celldm(2)=   1.000000  celldm(3)=   5.000000
     celldm(4)=   0.500000  celldm(5)=   0.000000  celldm(6)=   0.000000

     crystal axes: (cart. coord. in units of alat)
               a(1) = (   1.000446   0.000005   0.000000 )  
               a(2) = (   0.500228   0.866414   0.000000 )  
               a(3) = (   0.000000   0.000000   5.000000 )  

     reciprocal axes: (cart. coord. in units 2 pi/alat)
               b(1) = (  0.999557 -0.577098  0.000000 )  
               b(2) = ( -0.000006  1.154186  0.000000 )  
               b(3) = (  0.000000  0.000000  0.200000 )  


     PseudoPot. # 1 for B  read from file:
     /home/ngys/Desktop/pseudo/b_pbe_v1.4.uspp.F.UPF
     MD5 check sum: cc6de2960df11db49a60e589f9ebb39b
     Pseudo is Ultrasoft + core correction, Zval =  3.0
     Generated by new atomic code, or converted to UPF format
     Using radial grid of  781 points,  4 beta functions with: 
                l(1) =   0
                l(2) =   0
                l(3) =   1
                l(4) =   1
     Q(r) pseudized with  8 coefficients,  rinner =    1.100   1.100   1.100


     atomic species   valence    mass     pseudopotential
        B              3.00    10.81100     B ( 1.00)

      2 Sym. Ops. (no inversion) found



   Cartesian axes

     site n.     atom                  positions (alat units)
         1           B   tau(   1) = (   0.3311823  -0.0001756   0.0000000  )
         2           B   tau(   2) = (   0.6688447  -0.0001782   0.0000000  )
         3           B   tau(   3) = (   0.1654765   0.2868204   0.0000000  )
         4           B   tau(   4) = (   0.3342988   0.5792383   0.0000000  )
         5           B   tau(   5) = (   0.5000006   0.2886230   0.0000000  )
         6           B   tau(   6) = (   0.6656896   0.5792593   0.0000000  )
         7           B   tau(   7) = (   0.8345293   0.2868191   0.0000000  )
         8           B   tau(   8) = (   1.0002032   0.5774350   0.0000000  )

     number of k points=    52  Marzari-Vanderbilt smearing, width (Ry)=  0.0100
                       cart. coord. in units 2pi/alat
        k(    1) = (   0.0000000   0.0000000   0.0000000), wk =   0.0200000
        k(    2) = (  -0.0000006   0.1154186   0.0000000), wk =   0.0400000
        k(    3) = (  -0.0000012   0.2308371   0.0000000), wk =   0.0400000
        k(    4) = (  -0.0000019   0.3462557   0.0000000), wk =   0.0400000
        k(    5) = (  -0.0000025   0.4616743   0.0000000), wk =   0.0400000
        k(    6) = (   0.0000031  -0.5770928   0.0000000), wk =   0.0200000
        k(    7) = (   0.0999544   0.1731273   0.0000000), wk =   0.0400000
        k(    8) = (   0.0999538   0.2885459   0.0000000), wk =   0.0400000
        k(    9) = (   0.0999532   0.4039644   0.0000000), wk =   0.0400000
        k(   10) = (   0.0999588  -0.6348027   0.0000000), wk =   0.0400000
        k(   11) = (   0.1999089   0.3462546   0.0000000), wk =   0.0400000
        k(   12) = (   0.1999145  -0.6925125   0.0000000), wk =   0.0400000
        k(   13) = (   0.1999139  -0.5770939   0.0000000), wk =   0.0400000
        k(   14) = (   0.2998695  -0.6348037   0.0000000), wk =   0.0400000
        k(   15) = (  -0.0999557   0.0577098   0.0000000), wk =   0.0400000
        k(   16) = (   0.0999551   0.0577087   0.0000000), wk =   0.0400000
        k(   17) = (  -0.1999114   0.1154196   0.0000000), wk =   0.0400000
        k(   18) = (   0.1999101   0.1154175   0.0000000), wk =   0.0400000
        k(   19) = (  -0.2998671   0.1731295   0.0000000), wk =   0.0400000
        k(   20) = (   0.2998652   0.1731262   0.0000000), wk =   0.0400000
        k(   21) = (  -0.3998227   0.2308393   0.0000000), wk =   0.0400000
        k(   22) = (   0.3998202   0.2308350   0.0000000), wk =   0.0400000
        k(   23) = (   0.4997784  -0.2885491   0.0000000), wk =   0.0200000
        k(   24) = (  -0.4997753  -0.2885437   0.0000000), wk =   0.0200000
        k(   25) = (  -0.0999563   0.1731284   0.0000000), wk =   0.0400000
        k(   26) = (   0.1999107  -0.0000011   0.0000000), wk =   0.0400000
        k(   27) = (  -0.0999569   0.2885470   0.0000000), wk =   0.0400000
        k(   28) = (  -0.1999120   0.2308382   0.0000000), wk =   0.0400000
        k(   29) = (   0.2998658   0.0577077   0.0000000), wk =   0.0400000
        k(   30) = (  -0.1999095  -0.2308361   0.0000000), wk =   0.0400000
        k(   31) = (   0.2998664  -0.0577109   0.0000000), wk =   0.0400000
        k(   32) = (  -0.0999576   0.4039655   0.0000000), wk =   0.0400000
        k(   33) = (  -0.2998677   0.2885480   0.0000000), wk =   0.0400000
        k(   34) = (   0.3998209   0.1154164   0.0000000), wk =   0.0400000
        k(   35) = (  -0.2998646  -0.2885448   0.0000000), wk =   0.0400000
        k(   36) = (   0.3998221  -0.1154207   0.0000000), wk =   0.0400000
        k(   37) = (  -0.0999520  -0.6348016   0.0000000), wk =   0.0400000
        k(   38) = (   0.5997335  -0.2308404   0.0000000), wk =   0.0400000
        k(   39) = (  -0.4997747  -0.4039623   0.0000000), wk =   0.0400000
        k(   40) = (   0.5997310   0.2308339   0.0000000), wk =   0.0400000
        k(   41) = (  -0.4997790   0.4039677   0.0000000), wk =   0.0400000
        k(   42) = (  -0.1999126   0.3462568   0.0000000), wk =   0.0400000
        k(   43) = (   0.3998215  -0.0000022   0.0000000), wk =   0.0400000
        k(   44) = (  -0.1999070  -0.6925103   0.0000000), wk =   0.0400000
        k(   45) = (   0.6996885  -0.1731316   0.0000000), wk =   0.0400000
        k(   46) = (  -0.4997741  -0.5193809   0.0000000), wk =   0.0400000
        k(   47) = (   0.6996867   0.1731241   0.0000000), wk =   0.0400000
        k(   48) = (  -0.4997797   0.5193862   0.0000000), wk =   0.0400000
        k(   49) = (   0.5997329  -0.1154218   0.0000000), wk =   0.0400000
        k(   50) = (  -0.3998190  -0.4616721   0.0000000), wk =   0.0400000
        k(   51) = (  -0.2998627  -0.6348005   0.0000000), wk =   0.0400000
        k(   52) = (  -0.3998184  -0.5770907   0.0000000), wk =   0.0400000

     Dense  grid:   509649 G-vectors     FFT dimensions: (  64,  64, 320)

     Smooth grid:   236969 G-vectors     FFT dimensions: (  48,  48, 240)

     Estimated max dynamical RAM per process >       1.20 GB

     Initial potential from superposition of free atoms

     starting charge      23.9977, renormalised to      24.0000

     negative rho (up, down):  8.031E-05 0.000E+00
     Starting wfcs are   32 randomized atomic wfcs

     total cpu time spent up to now is     1489.4 secs

     Self-consistent Calculation

     iteration #  1     ecut=    60.00 Ry     beta= 0.70
     Davidson diagonalization with overlap
     c_bands:  1 eigenvalues not converged
     c_bands:  2 eigenvalues not converged
     c_bands:  1 eigenvalues not converged
     c_bands:  1 eigenvalues not converged
     c_bands:  1 eigenvalues not converged
     c_bands:  1 eigenvalues not converged
     c_bands:  1 eigenvalues not converged
     c_bands:  2 eigenvalues not converged
     c_bands:  2 eigenvalues not converged
     ethr =  1.00E-06,  avg # of iterations = 14.8

     negative rho (up, down):  3.054E-05 0.000E+00

     total cpu time spent up to now is     1645.8 secs

     total energy              =     -50.78233950 Ry
     estimated scf accuracy    <       0.70991629 Ry

     iteration #  2     ecut=    60.00 Ry     beta= 0.70
     Davidson diagonalization with overlap
     ethr =  2.96E-03,  avg # of iterations =  2.0

     negative rho (up, down):  1.856E-05 0.000E+00

     total cpu time spent up to now is     1688.8 secs

     total energy              =     -50.91170835 Ry
     estimated scf accuracy    <       0.01856052 Ry

     iteration #  3     ecut=    60.00 Ry     beta= 0.70
     Davidson diagonalization with overlap
     ethr =  7.73E-05,  avg # of iterations =  3.8

     negative rho (up, down):  1.503E-05 0.000E+00

     total cpu time spent up to now is     1741.8 secs

     total energy              =     -50.91644565 Ry
     estimated scf accuracy    <       0.00476198 Ry

     iteration #  4     ecut=    60.00 Ry     beta= 0.70
     Davidson diagonalization with overlap
     ethr =  1.98E-05,  avg # of iterations =  4.1

     negative rho (up, down):  1.351E-05 0.000E+00

     total cpu time spent up to now is     1789.6 secs

     total energy              =     -50.91738966 Ry
     estimated scf accuracy    <       0.00009847 Ry

     iteration #  5     ecut=    60.00 Ry     beta= 0.70
     Davidson diagonalization with overlap
     c_bands:  1 eigenvalues not converged
     c_bands:  1 eigenvalues not converged
     ethr =  4.10E-07,  avg # of iterations =  6.2

     negative rho (up, down):  1.322E-05 0.000E+00

     total cpu time spent up to now is     1851.0 secs

     total energy              =     -50.91740905 Ry
     estimated scf accuracy    <       0.00001417 Ry

     iteration #  6     ecut=    60.00 Ry     beta= 0.70
     Davidson diagonalization with overlap
     ethr =  5.90E-08,  avg # of iterations =  2.3

     negative rho (up, down):  1.314E-05 0.000E+00

     total cpu time spent up to now is     1897.1 secs

     total energy              =     -50.91741293 Ry
     estimated scf accuracy    <       0.00000094 Ry

     iteration #  7     ecut=    60.00 Ry     beta= 0.70
     Davidson diagonalization with overlap
     ethr =  3.93E-09,  avg # of iterations =  2.6

     negative rho (up, down):  1.312E-05 0.000E+00

     total cpu time spent up to now is     1939.9 secs

     total energy              =     -50.91741317 Ry
     estimated scf accuracy    <       0.00000001 Ry

     iteration #  8     ecut=    60.00 Ry     beta= 0.70
     Davidson diagonalization with overlap
     ethr =  4.20E-11,  avg # of iterations =  4.8

     negative rho (up, down):  1.311E-05 0.000E+00

     total cpu time spent up to now is     2001.0 secs

     total energy              =     -50.91741317 Ry
     estimated scf accuracy    <       0.00000001 Ry

     iteration #  9     ecut=    60.00 Ry     beta= 0.70
     Davidson diagonalization with overlap
     ethr =  4.20E-11,  avg # of iterations =  1.9

     negative rho (up, down):  1.311E-05 0.000E+00

     total cpu time spent up to now is     2040.1 secs

     total energy              =     -50.91741317 Ry
     estimated scf accuracy    <          6.6E-10 Ry

     iteration # 10     ecut=    60.00 Ry     beta= 0.70
     Davidson diagonalization with overlap
     ethr =  2.75E-12,  avg # of iterations =  3.5

     negative rho (up, down):  1.311E-05 0.000E+00

     total cpu time spent up to now is     2093.8 secs

     End of self-consistent calculation

          k = 0.0000 0.0000 0.0000 ( 29643 PWs)   bands (ev):

   -18.3490 -14.2082 -14.1288 -14.1287 -11.9579 -11.9577  -9.8830  -9.1845
    -4.3316  -4.3310  -2.7577  -2.1973  -2.1971  -2.0073  -2.0072  -1.7110

          k =-0.0000 0.1154 0.0000 ( 29585 PWs)   bands (ev):

   -18.3037 -14.8086 -14.1734 -13.5667 -12.0198 -11.8399  -9.6788  -9.1152
    -4.8347  -4.7575  -3.5816  -2.6373  -2.1376  -1.5381  -1.4616  -1.1359

          k =-0.0000 0.2308 0.0000 ( 29552 PWs)   bands (ev):

   -18.1698 -15.4329 -14.2767 -13.1624 -11.9795 -11.5243  -9.2394  -8.9090
    -5.7547  -5.5190  -4.6381  -3.1211  -2.3312  -0.6226  -0.4207  -0.2492

          k =-0.0000 0.3463 0.0000 ( 29584 PWs)   bands (ev):

   -17.9555 -16.0127 -14.3851 -13.1072 -11.5647 -11.0943  -8.9024  -8.5738
    -6.6605  -6.1166  -5.6110  -3.4760  -2.5426   0.3373   0.6723   0.7694

          k =-0.0000 0.4617 0.0000 ( 29576 PWs)   bands (ev):

   -17.6905 -16.5033 -14.4617 -13.1777 -11.0084 -10.6713  -8.9522  -8.1422
    -7.3749  -6.4334  -6.3079  -3.6908  -2.6905   1.1236   1.5204   1.6034

          k = 0.0000-0.5771 0.0000 ( 29628 PWs)   bands (ev):

   -17.5218 -16.7482 -14.4889 -13.2120 -10.7098 -10.4732  -9.1181  -7.8385
    -7.6707  -6.8685  -6.2920  -3.7626  -2.7427   1.1400   1.6499   2.1131

          k = 0.1000 0.1731 0.0000 ( 29583 PWs)   bands (ev):

   -18.2140 -15.2608 -14.2812 -13.1783 -12.0870 -11.5928  -9.3628  -8.9773
    -5.5274  -5.2815  -4.3150  -3.2452  -1.8491  -0.9895  -0.9638  -0.6113

          k = 0.1000 0.2885 0.0000 ( 29581 PWs)   bands (ev):

   -18.0390 -15.7966 -14.4479 -12.8841 -11.9608 -11.1738  -9.0003  -8.7057
    -6.3385  -5.9242  -5.2036  -3.7740  -1.8485  -0.2666  -0.2638   0.5551

          k = 0.1000 0.4040 0.0000 ( 29578 PWs)   bands (ev):

   -17.7929 -16.3071 -14.5881 -12.8719 -11.4762 -10.7177  -8.9709  -8.3150
    -6.9722  -6.3216  -6.0600  -4.1042  -1.9878   0.4539   0.7300   1.2906

          k = 0.1000-0.6348 0.0000 ( 29609 PWs)   bands (ev):

   -17.5378 -16.7003 -14.6647 -12.9147 -10.9767 -10.3869  -9.2852  -7.8830
    -7.3749  -6.7362  -6.3409  -4.2640  -2.0775   0.9996   1.2686   1.7888

          k = 0.1999 0.3463 0.0000 ( 29584 PWs)   bands (ev):

   -17.8286 -16.2136 -14.7047 -12.4643 -11.9228 -10.7091  -9.0144  -8.3747
    -6.7212  -6.3603  -5.8370  -4.4278  -1.1998  -0.1771   0.1130   1.8072

          k = 0.1999-0.6925 0.0000 ( 29606 PWs)   bands (ev):

   -17.5613 -16.6194 -14.8891 -12.3300 -11.5098 -10.3250  -9.4633  -7.9425
    -6.8797  -6.5152  -6.4936  -4.8020  -1.0309   0.4970   0.5611   1.4518

          k = 0.1999-0.5771 0.0000 ( 29646 PWs)   bands (ev):

   -17.3728 -16.8568 -14.9534 -12.3292 -11.1712 -10.1690  -9.8149  -7.6146
    -7.0142  -6.9067  -6.4371  -4.9190  -1.0329   0.7580   1.0385   1.2835

          k = 0.2999-0.6348 0.0000 ( 29628 PWs)   bands (ev):

   -17.2849 -16.9310 -15.0740 -11.8159 -11.5091 -10.0976 -10.0512  -7.4945
    -6.9449  -6.7016  -6.6068  -5.1955  -0.1427   0.5054   0.6230   0.9735

          k =-0.1000 0.0577 0.0000 ( 29585 PWs)   bands (ev):

   -18.3037 -14.8085 -14.1734 -13.5668 -12.0199 -11.8398  -9.6788  -9.1152
    -4.8345  -4.7577  -3.5816  -2.6373  -2.1379  -1.5380  -1.4616  -1.1358

          k = 0.1000 0.0577 0.0000 ( 29585 PWs)   bands (ev):

   -18.3037 -14.8086 -14.1734 -13.5667 -12.0197 -11.8399  -9.6788  -9.1152
    -4.8349  -4.7574  -3.5816  -2.6374  -2.1376  -1.5381  -1.4616  -1.1360

          k =-0.1999 0.1154 0.0000 ( 29552 PWs)   bands (ev):

   -18.1698 -15.4328 -14.2768 -13.1625 -11.9796 -11.5241  -9.2394  -8.9090
    -5.7546  -5.5191  -4.6380  -3.1211  -2.3315  -0.6227  -0.4207  -0.2491

          k = 0.1999 0.1154 0.0000 ( 29552 PWs)   bands (ev):

   -18.1698 -15.4329 -14.2768 -13.1624 -11.9794 -11.5243  -9.2394  -8.9090
    -5.7548  -5.5190  -4.6381  -3.1212  -2.3311  -0.6226  -0.4208  -0.2492

          k =-0.2999 0.1731 0.0000 ( 29584 PWs)   bands (ev):

   -17.9556 -16.0126 -14.3852 -13.1075 -11.5647 -11.0940  -8.9024  -8.5738
    -6.6605  -6.1166  -5.6109  -3.4760  -2.5429   0.3372   0.6723   0.7695

          k = 0.2999 0.1731 0.0000 ( 29584 PWs)   bands (ev):

   -17.9556 -16.0127 -14.3852 -13.1073 -11.5645 -11.0943  -8.9024  -8.5738
    -6.6606  -6.1166  -5.6110  -3.4761  -2.5426   0.3374   0.6722   0.7693

          k =-0.3998 0.2308 0.0000 ( 29578 PWs)   bands (ev):

   -17.6905 -16.5032 -14.4618 -13.1780 -11.0085 -10.6710  -8.9521  -8.1422
    -7.3750  -6.4333  -6.3079  -3.6907  -2.6908   1.1236   1.5204   1.6032

          k = 0.3998 0.2308 0.0000 ( 29574 PWs)   bands (ev):

   -17.6905 -16.5032 -14.4618 -13.1778 -11.0082 -10.6714  -8.9521  -8.1422
    -7.3749  -6.4333  -6.3081  -3.6908  -2.6905   1.1236   1.5204   1.6035

          k = 0.4998-0.2885 0.0000 ( 29628 PWs)   bands (ev):

   -17.5219 -16.7480 -14.4890 -13.2123 -10.7099 -10.4729  -9.1180  -7.8386
    -7.6708  -6.8684  -6.2920  -3.7625  -2.7430   1.1400   1.6498   2.1131

          k =-0.4998-0.2885 0.0000 ( 29628 PWs)   bands (ev):

   -17.5219 -16.7481 -14.4890 -13.2121 -10.7095 -10.4734  -9.1180  -7.8386
    -7.6706  -6.8684  -6.2923  -3.7627  -2.7426   1.1400   1.6499   2.1131

          k =-0.1000 0.1731 0.0000 ( 29583 PWs)   bands (ev):

   -18.2140 -15.2608 -14.2812 -13.1784 -12.0872 -11.5926  -9.3628  -8.9773
    -5.5270  -5.2819  -4.3150  -3.2452  -1.8493  -0.9893  -0.9639  -0.6116

          k = 0.1999-0.0000 0.0000 ( 29583 PWs)   bands (ev):

   -18.2140 -15.2608 -14.2813 -13.1784 -12.0871 -11.5926  -9.3628  -8.9773
    -5.5272  -5.2817  -4.3149  -3.2453  -1.8493  -0.9894  -0.9638  -0.6115

          k =-0.1000 0.2885 0.0000 ( 29581 PWs)   bands (ev):

   -18.0390 -15.7966 -14.4479 -12.8842 -11.9610 -11.1736  -9.0003  -8.7057
    -6.3381  -5.9246  -5.2036  -3.7740  -1.8486  -0.2668  -0.2635   0.5548

          k =-0.1999 0.2308 0.0000 ( 29581 PWs)   bands (ev):

   -18.0390 -15.7966 -14.4479 -12.8843 -11.9609 -11.1735  -9.0002  -8.7057
    -6.3381  -5.9246  -5.2035  -3.7740  -1.8487  -0.2666  -0.2636   0.5548

          k = 0.2999 0.0577 0.0000 ( 29581 PWs)   bands (ev):

   -18.0390 -15.7966 -14.4480 -12.8842 -11.9609 -11.1736  -9.0002  -8.7057
    -6.3383  -5.9245  -5.2035  -3.7741  -1.8485  -0.2667  -0.2636   0.5549

          k =-0.1999-0.2308 0.0000 ( 29581 PWs)   bands (ev):

   -18.0390 -15.7966 -14.4480 -12.8842 -11.9607 -11.1738  -9.0003  -8.7057
    -6.3385  -5.9243  -5.2036  -3.7741  -1.8485  -0.2666  -0.2637   0.5550

          k = 0.2999-0.0577 0.0000 ( 29581 PWs)   bands (ev):

   -18.0390 -15.7965 -14.4480 -12.8843 -11.9609 -11.1735  -9.0002  -8.7057
    -6.3383  -5.9244  -5.2035  -3.7741  -1.8487  -0.2666  -0.2637   0.5549

          k =-0.1000 0.4040 0.0000 ( 29578 PWs)   bands (ev):

   -17.7929 -16.3070 -14.5881 -12.8719 -11.4763 -10.7175  -8.9709  -8.3150
    -6.9720  -6.3218  -6.0600  -4.1042  -1.9879   0.4541   0.7299   1.2906

          k =-0.2999 0.2885 0.0000 ( 29578 PWs)   bands (ev):

   -17.7930 -16.3070 -14.5881 -12.8722 -11.4762 -10.7174  -8.9708  -8.3150
    -6.9720  -6.3218  -6.0599  -4.1042  -1.9881   0.4540   0.7300   1.2906

          k = 0.3998 0.1154 0.0000 ( 29576 PWs)   bands (ev):

   -17.7930 -16.3070 -14.5882 -12.8720 -11.4762 -10.7176  -8.9708  -8.3150
    -6.9721  -6.3219  -6.0599  -4.1042  -1.9878   0.4541   0.7299   1.2906

          k =-0.2999-0.2885 0.0000 ( 29578 PWs)   bands (ev):

   -17.7930 -16.3070 -14.5881 -12.8720 -11.4760 -10.7177  -8.9709  -8.3150
    -6.9721  -6.3218  -6.0599  -4.1042  -1.9878   0.4540   0.7300   1.2906

          k = 0.3998-0.1154 0.0000 ( 29578 PWs)   bands (ev):

   -17.7930 -16.3069 -14.5882 -12.8721 -11.4762 -10.7174  -8.9708  -8.3150
    -6.9722  -6.3217  -6.0599  -4.1042  -1.9881   0.4539   0.7301   1.2906

          k =-0.1000-0.6348 0.0000 ( 29609 PWs)   bands (ev):

   -17.5378 -16.7003 -14.6646 -12.9147 -10.9768 -10.3869  -9.2852  -7.8830
    -7.3748  -6.7362  -6.3409  -4.2640  -2.0775   0.9996   1.2687   1.7876

          k = 0.5997-0.2308 0.0000 ( 29609 PWs)   bands (ev):

   -17.5379 -16.7001 -14.6647 -12.9149 -10.9767 -10.3867  -9.2851  -7.8830
    -7.3749  -6.7360  -6.3409  -4.2640  -2.0777   0.9995   1.2685   1.7878

          k =-0.4998-0.4040 0.0000 ( 29609 PWs)   bands (ev):

   -17.5379 -16.7002 -14.6647 -12.9148 -10.9767 -10.3869  -9.2851  -7.8831
    -7.3748  -6.7361  -6.3412  -4.2640  -2.0775   0.9996   1.2687   1.7876

          k = 0.5997 0.2308 0.0000 ( 29609 PWs)   bands (ev):

   -17.5379 -16.7002 -14.6647 -12.9148 -10.9766 -10.3870  -9.2852  -7.8830
    -7.3747  -6.7361  -6.3412  -4.2640  -2.0775   0.9996   1.2687   1.7877

          k =-0.4998 0.4040 0.0000 ( 29609 PWs)   bands (ev):

   -17.5379 -16.7001 -14.6647 -12.9149 -10.9767 -10.3867  -9.2851  -7.8830
    -7.3749  -6.7360  -6.3409  -4.2640  -2.0777   0.9995   1.2685   1.7885

          k =-0.1999 0.3463 0.0000 ( 29584 PWs)   bands (ev):

   -17.8286 -16.2136 -14.7046 -12.4644 -11.9229 -10.7089  -9.0143  -8.3747
    -6.7207  -6.3607  -5.8370  -4.4278  -1.2000  -0.1771   0.1131   1.8070

          k = 0.3998-0.0000 0.0000 ( 29584 PWs)   bands (ev):

   -17.8287 -16.2136 -14.7047 -12.4645 -11.9229 -10.7089  -9.0143  -8.3747
    -6.7210  -6.3605  -5.8369  -4.4278  -1.2000  -0.1770   0.1130   1.8070

          k =-0.1999-0.6925 0.0000 ( 29606 PWs)   bands (ev):

   -17.5613 -16.6194 -14.8891 -12.3300 -11.5100 -10.3249  -9.4632  -7.9425
    -6.8795  -6.5154  -6.4936  -4.8020  -1.0309   0.4971   0.5610   1.4519

          k = 0.6997-0.1731 0.0000 ( 29606 PWs)   bands (ev):

   -17.5614 -16.6194 -14.8891 -12.3302 -11.5099 -10.3248  -9.4632  -7.9425
    -6.8796  -6.5153  -6.4935  -4.8021  -1.0311   0.4970   0.5611   1.4518

          k =-0.4998-0.5194 0.0000 ( 29606 PWs)   bands (ev):

   -17.5614 -16.6193 -14.8892 -12.3301 -11.5099 -10.3249  -9.4631  -7.9426
    -6.8795  -6.5155  -6.4935  -4.8021  -1.0309   0.4970   0.5610   1.4518

          k = 0.6997 0.1731 0.0000 ( 29606 PWs)   bands (ev):

   -17.5614 -16.6194 -14.8891 -12.3300 -11.5098 -10.3250  -9.4633  -7.9425
    -6.8795  -6.5155  -6.4936  -4.8020  -1.0308   0.4970   0.5611   1.4518

          k =-0.4998 0.5194 0.0000 ( 29606 PWs)   bands (ev):

   -17.5614 -16.6193 -14.8892 -12.3302 -11.5099 -10.3248  -9.4631  -7.9426
    -6.8797  -6.5152  -6.4935  -4.8021  -1.0311   0.4970   0.5612   1.4518

          k = 0.5997-0.1154 0.0000 ( 29646 PWs)   bands (ev):

   -17.3729 -16.8567 -14.9534 -12.3293 -11.1711 -10.1689  -9.8149  -7.6147
    -7.0143  -6.9066  -6.4371  -4.9191  -1.0331   0.7579   1.0385   1.2837

          k =-0.3998-0.4617 0.0000 ( 29646 PWs)   bands (ev):

   -17.3729 -16.8567 -14.9534 -12.3292 -11.1711 -10.1690  -9.8149  -7.6147
    -7.0141  -6.9066  -6.4374  -4.9190  -1.0328   0.7580   1.0385   1.2836

          k =-0.2999-0.6348 0.0000 ( 29628 PWs)   bands (ev):

   -17.2849 -16.9310 -15.0740 -11.8159 -11.5091 -10.0975 -10.0511  -7.4945
    -6.9449  -6.7020  -6.6064  -5.1955  -0.1429   0.5055   0.6230   0.9735

          k =-0.3998-0.5771 0.0000 ( 29628 PWs)   bands (ev):

   -17.2850 -16.9309 -15.0740 -11.8160 -11.5090 -10.0975 -10.0511  -7.4946
    -6.9448  -6.7017  -6.6067  -5.1955  -0.1429   0.5055   0.6230   0.9735

     the Fermi energy is    -2.6704 ev

!    total energy              =     -50.91741317 Ry
     estimated scf accuracy    <          5.2E-11 Ry
     smearing contrib. (-TS)   =      -0.00047714 Ry
     internal energy E=F+TS    =     -50.91693603 Ry

     The total energy is F=E-TS. E is the sum of the following terms:
     one-electron contribution =    -613.21983183 Ry
     hartree contribution      =     309.10412395 Ry
     xc contribution           =     -23.76614450 Ry
     ewald contribution        =     276.96491634 Ry

     convergence has been achieved in  10 iterations

     negative rho (up, down):  1.311E-05 0.000E+00

     Forces acting on atoms (cartesian axes, Ry/au):

     atom    1 type  1   force =    -0.00006651    0.00001552    0.00000000
     atom    2 type  1   force =    -0.00003750    0.00002488    0.00000000
     atom    3 type  1   force =    -0.00002066   -0.00002829    0.00000000
     atom    4 type  1   force =     0.00002650   -0.00000610    0.00000000
     atom    5 type  1   force =     0.00001220    0.00003610    0.00000000
     atom    6 type  1   force =     0.00000964   -0.00004533    0.00000000
     atom    7 type  1   force =    -0.00000776    0.00000851    0.00000000
     atom    8 type  1   force =     0.00008409   -0.00000530    0.00000000

     Total force =     0.000140     Total SCF correction =     0.000007


     Computing stress (Cartesian axis) and pressure


     negative rho (up, down):  1.311E-05 0.000E+00
          total   stress  (Ry/bohr**3)                   (kbar)     P=       -0.01
   0.00000047   0.00000001   0.00000000            0.07        0.00        0.00
   0.00000001   0.00000048   0.00000000            0.00        0.07        0.00
   0.00000000   0.00000000  -0.00000116            0.00        0.00       -0.17


     Writing all to output data dir ./tmp/x3.save/

     init_run     :    277.48s CPU     91.35s WALL (       2 calls)
     electrons    :  11870.80s CPU   1735.63s WALL (       4 calls)
     update_pot   :     39.19s CPU     38.74s WALL (       2 calls)
     forces       :     60.27s CPU     61.13s WALL (       4 calls)
     stress       :   1869.58s CPU    241.30s WALL (       4 calls)

     Called by init_run:
     wfcinit      :    244.20s CPU     57.63s WALL (       2 calls)
     potinit      :     11.52s CPU     11.64s WALL (       2 calls)
     hinit0       :     20.43s CPU     20.53s WALL (       2 calls)

     Called by electrons:
     c_bands      :  11603.97s CPU   1512.47s WALL (      33 calls)
     sum_band     :    233.51s CPU    187.33s WALL (      33 calls)
     v_of_rho     :     19.58s CPU     20.71s WALL (      37 calls)
     newd         :     12.05s CPU     15.36s WALL (      37 calls)
     mix_rho      :      2.21s CPU      2.08s WALL (      33 calls)

     Called by c_bands:
     init_us_2    :    404.22s CPU     43.12s WALL (    3952 calls)
     init_us_2:cp :    403.91s CPU     43.10s WALL (    3952 calls)
     cegterg      :  10026.77s CPU   1400.77s WALL (    1716 calls)

     Called by *egterg:
     cdiaghg      :    228.56s CPU     15.00s WALL (    7411 calls)
     h_psi        :   6976.82s CPU   1120.67s WALL (    7619 calls)
     s_psi        :    207.92s CPU     59.42s WALL (    7619 calls)
     g_psi        :    112.76s CPU      9.52s WALL (    5799 calls)

     Called by h_psi:
     h_psi:calbec :    166.55s CPU     63.38s WALL (    7619 calls)
     vloc_psi     :   6436.50s CPU    984.34s WALL (    7619 calls)
     add_vuspsi   :    294.26s CPU     66.03s WALL (    7619 calls)

     General routines
     calbec       :    196.64s CPU     92.00s WALL (   10375 calls)
     fft          :     12.41s CPU     12.57s WALL (     575 calls)
     ffts         :      1.26s CPU      1.27s WALL (      70 calls)
     fftw         :   5766.32s CPU    969.26s WALL (  198160 calls)
     interpolate  :      1.91s CPU      1.93s WALL (      37 calls)

     Parallel routines

     PWSCF        :      3h55m CPU  36m 9.62s WALL


   This run was terminated on:  16:46:46  30Jan2023            

=------------------------------------------------------------------------------=
   JOB DONE.
=------------------------------------------------------------------------------=
